Experiment Number (900 series refer to external references),solute,solute SMILES,solvent,concentration (M),csid,solubility,
1287,2-chloro-N-phenyl-N-propan-2-ylacetamide,ClCC(=O)N(C(C)C)c1ccccc1,water,0.003311311,4762,-2.48,
1287,2-chloroacetamide,ClCC(=O)N,water,0.954992586,6332,-0.02,
963,2-chloroacetic acid,ClCC(O)=O,water,9.080,10772140,0.958069267,
1287,2-chloroacetic acid,ClCC(=O)O,water,8.511380382,10772140,0.93,
1287,2-chloroacetonitrile,ClCC#N,water,0.812830516,7568,-0.09,
1287,2-chloroacridin-9-amine,c21c(c3c(nc1ccc(c2)Cl)cccc3)N,water,0.003767038,29449,-2.424,
1287,2-chloroaniline,Clc1c(cccc1)N,water,0.030199517,13854248,-1.52,
1287,2-chloroanisole,COc1ccccc1Cl,water,0.003467369,13875198,-2.46,
1287,2-Chlorobenzoic acid,Clc1c(cccc1)C(=O)O,water,0.012882496,8071,-1.89,
1287,2-chlorobutane,ClC(CC)C,water,0.010964782,6315,-1.96,
1287,2-chlorobutane,CC(CC)Cl,water,0.010964782,6315,-1.96,
1287,2-chlorodibenzo-p-dioxin,c31c(cc(cc1)Cl)Oc2c(cccc2)O3,water,1.34896E-06,35061,-5.869999962,
1287,2-Chlorodiphenyl ether,O(c1c(cccc1)Cl)c2ccccc2,water,1.65959E-05,68405,-4.780000002,
1287,2-chloronaphthalene,Clc1cc2c(cc1)cccc2,water,7.24436E-05,6789,-4.14,
1287,2-chloropentane,ClC(CCC)C,water,0.002344229,11744,-2.63,
1287,2-chloropentane,CC(CCC)Cl,water,0.002344229,11744,-2.63,
1287,2-chlorophenol,Clc1c(cccc1)O,water,0.087096359,13837686,-1.06,
1287,2-chloroprop-2-enyl diethylaminomethanedithioate,ClC(=C)CSC(=S)N(CC)CC,water,0.00040738,6946,-3.39,
1287,2-chloropropane,ClC(C)C,water,0.038904514,6121,-1.41,
1287,2-chloropropane,CC(C)Cl,water,0.038904514,6121,-1.41,
1287,2-chlorotoluene,Cc1ccccc1Cl,water,0.000301995,13875281,-3.52,
1287,2-cyanoguanidine,NC(=NC#N)N,water,0.489778819,9611,-0.31,
1287,2-decanone,O=C(CCCCCCCC)C,water,0.000489779,12218,-3.31,
1287,2-diethylaminoethyl 4-acetamidobenzoate,c1(ccc(cc1)NC(=O)C)C(=O)OCCN(CC)CC,water,0.022646443,133432,-1.645,
1287,2-diethylaminopropyl 4-aminobenzoate,c1(ccc(cc1)N)C(=O)OCC(N(CC)CC)C,water,0.004130475,375238,-2.384,
1287,2-Ethoxy-5-nitroaniline,c1(c(cc(cc1)[N+](=O)[O-])N)OCC,water,0.000615177,8378,-3.211,
1287,2-ethoxy-N-hydroxy-N-phenylbenzamide,c1(c(cccc1)OCC)C(=O)N(c2ccccc2)O,water,0.000427563,10469127,-3.369,
1287,2-ethoxycarbothioylsulfanylbutanedioic acid,C(SC(=S)OCC)(CC(=O)O)C(=O)O,water,0.065162839,10468913,-1.186,
1287,2-ethyl pyridine,n1c(cccc1)CC,water,3.235936569,7242,0.51,
1287,2-ethyl-1-butanol,OCC(CC)CC,water,0.067608298,7080,-1.17,
1287,2-ethyl-1-butanol,C(C(CC)CC)O,water,0.067608298,7080,-1.17,
1287,2-ethyl-1-hexanol,OCC(CCCC)CC,water,0.007762471,7434,-2.11,
1287,2-ethyl-1-hexanol,C(C(CCCC)CC)O,water,0.007762471,7434,-2.11,
1287,"2-ethyl-1,3-hexanediol",OC(C(CO)CC)CCC,water,0.28840315,21106534,-0.54,
1287,2-ethyl-2-hexanal,O=CC(=CCCC)CC,water,0.003467369,9172227,-2.46,
1287,2-ethyl-2-phenylgluterimide,N1C(=O)C(CCC1=O)(CC)c2ccccc2,water,0.004570882,3367,-2.34,
1287,2-ethyl-2-propanol,CC(C)(O)CC,water,1.202264435,6165,0.08,
1287,2-ethyl-2-propanol,OC(CC)(C)C,water,1.202264435,6165,0.08,
1287,2-Ethyl-N-hydroxy-2-(4-methylbenzyl)butanamide,CCC(CC)(Cc1ccc(cc1)C)C(=O)NO,water,0.000450817,28295157,-3.346,
1287,2-Ethylanthracene,C(C)c3cc1c(cc2c(c1)cccc2)cc3,water,1.28825E-07,36820,-6.889999849,
1287,2-ethylbutanal,O=CC(CC)CC,water,0.030199517,7081,-1.52,
1287,2-ethylbutyl N-sulfamoylcarbamate,N(S(=O)(=O)N)C(=O)OCC(CC)CC,water,0.017823788,10469210,-1.749,
1287,2-ethylbutyric acid,OC(=O)C(CC)CC,water,0.154881662,6649,-0.81,
1287,2-ethylhexanal,O=CC(CCCC)CC,water,0.007413102,28981,-2.13,
1287,2-ethylhexyl N-sulfamoylcarbamate,N(S(=O)(=O)N)C(=O)OCC(CCCC)CC,water,0.00396278,10469223,-2.402,
1287,2-ethylhexylamine,NCC(CCCC)CC,water,0.019498446,7433,-1.71,
1287,2-Ethylnaphthalene,C(C)c1cc2c(cc1)cccc2,water,5.12861E-05,13063,-4.290000003,
1287,2-ethylsulfanylcarbothioyloxybutanedioic acid,C(OC(=S)SCC)(CC(=O)O)C(=O)O,water,0.051760683,10469337,-1.286,
1287,2-ethylthiophene,s1c(ccc1)CC,water,0.002570396,12815,-2.59,
1287,2-Fluoro-9-acridinamine,c1ccc2c(c1)c(c3cc(ccc3n2)F)N,water,0.004017908,28295117,-2.396,
1287,2-furan-2-yl-1H-benzimidazole,c1([nH]c2c(n1)cccc2)-c3occc3,water,0.000325837,18609,-3.487,
911,2-furoic acid,O=C(O)[C@@H](N)CS(=O)(=O)O,water,0.320,10251740,-0.494850022,
1287,2-furoic acid,O=C(O)[C@@H](N)CS(=O)(=O)O,water,0.331131121,10251740,-0.48,
1287,2-heptanol,OC(CCCCC)C,water,0.028183829,10511,-1.55,
1287,2-heptanol,CC(CCCCC)O,water,0.028183829,10511,-1.55,
1287,2-heptanone,O=C(C)CCCCC,water,0.03801894,7760,-1.42,
1287,2-hexanol,OC(CCCC)C,water,0.128824955,11794,-0.89,
1287,2-hexanol,CC(CCCC)O,water,0.128824955,11794,-0.89,
1287,2-hexanone,O=C(CCCC)C,water,0.158489319,11095,-0.8,
1287,2-Hydroxy-1-(4-hydroxy-3-methoxyphenyl)ethanone,c1(cc(c(cc1)O)OC)C(=O)CO,water,0.016481624,78962,-1.783,
1287,2-Hydroxy-3-phenoxy-N-phenylpropanamide,c1ccc(cc1)NC(=O)C(COc2ccccc2)O,water,0.003890451,28295118,-2.41,
1287,"2-Hydroxy-3,5-diiodobenzoic acid",Ic1c(c(cc(c1)I)C(=O)O)O,water,0.000489779,8310,-3.31,
1287,2-Hydroxy-5-[(E)-(2-nitrophenyl)diazenyl]benzoic acid,c1ccc(c(c1)/N=N/c2ccc(c(c2)C(=O)O)O)[N+](=O)[O-],water,0.009772372,28295093,-2.01,
1287,2-hydroxy-N-[6-(2-hydroxypropanoylamino)hexyl]propanamide,C(=O)(C(O)C)NCCCCCCNC(=O)C(O)C,water,0.199526231,15788876,-0.7,
1287,2-hydroxy-N-octylpropanamide,C(=O)(C(O)C)NCCCCCCCC,water,0.005211947,194059,-2.283,
1287,2-hydroxyacetanilide,N(c1c(cccc1)O)C(=O)C,water,0.005754399,11477,-2.24,
1287,2-hydroxyethyl 2-(6-methoxynaphthalen-2-yl)propanoate,c21c(cc(cc1)OC)ccc(c2)C(C(=O)OCCO)C,water,0.000469894,54511,-3.328,
1287,2-Hydroxyethyl 2-hydroxybenzoate,c1(c(cccc1)O)C(=O)OCCO,water,0.069662651,6616,-1.157,
1287,2-hydroxyethyl N-[6-(2-hydroxyethoxycarbonylamino)hexyl]carbamate,C(=O)(NCCCCCCNC(=O)OCCO)OCCO,water,0.119674053,10468807,-0.922,
1287,2-hydroxypropyl 2-(6-methoxynaphthalen-2-yl)propanoate,c21c(cc(cc1)OC)ccc(c2)C(C(=O)OCC(O)C)C,water,0.00049545,10441695,-3.305,
1287,2-hydroxypteridine,n2c1nccnc1cnc2O,water,0.011220185,513372,-1.95,
1287,2-hydroxypyridine,n1c(cccc1)O,water,10.47128548,8537,1.02,
1287,2-Iodo-N-phenylbenzamide,Ic1c(cccc1)C(=O)Nc2ccccc2,water,6.16595E-05,25310,-4.210000001,
1287,2-Iodobenzoic acid,Ic1c(cccc1)C(=O)O,water,0.001862087,6675,-2.73,
1287,2-Iodopropane,IC(C)C,water,0.008128305,6122,-2.09,
1287,2-Iodopropane,CC(C)I,water,0.008128305,6122,-2.09,
1287,2-mentanol,C1(CCCC(C1C(C)C)C)O,water,0.512861384,198686,-0.29,
1287,2-mercaptobenzothiazole,s1c(nc2c1cccc2)S,water,0.000660693,608157,-3.18,
1287,2-methoxy-5-methylbenzenesulfonamide,c1(c(ccc(c1)C)OC)S(=O)(=O)N,water,0.029785164,788131,-1.526,
1287,2-Methoxy-5-nitroaniline,c1(cc(c(cc1)OC)N)[N+](=O)[O-],water,0.000683912,7167,-3.165,
1287,"2-methoxybenzene-1,3-dicarboxylic acid",c1(c(cccc1C(=O)O)C(=O)O)OC,water,0.005152286,3752328,-2.288,
907,2-methoxybenzoic acid,O=C(O)c1ccccc1OC,water,0.028,10892,-1.559090918,
1287,2-methoxypteridine,n2c1nccnc1cnc2OC,water,0.077624712,10465162,-1.11,
1287,2-methoxypteridine,n2c1nccnc1c(nc2)OC,water,0.077624712,10465163,-1.11,
1287,2-methoxyterephthalic acid,c1(c(ccc(c1)C(=O)O)C(=O)O)OC,water,0.010303861,249266,-1.987,
1287,2-methyl naphthalene,c12ccccc1ccc(c2)C,water,0.000169824,6788,-3.770000001,
1287,2-methyl-1-butanol,OCC(CC)C,water,0.338844156,8398,-0.47,
1287,2-methyl-1-butanol,C(C(CC)C)O,water,0.338844156,8398,-0.47,
1287,2-Methyl-1-nitronaphthalene,c21c(c(ccc1cccc2)C)[N+](=O)[O-],water,5.34564E-05,12857,-4.272,
1287,2-methyl-1-pentanol,OCC(CCC)C,water,0.077624712,7459,-1.11,
1287,2-methyl-1-pentanol,C(C(CCC)C)O,water,0.077624712,7459,-1.11,
1287,2-methyl-2-heptanol,OC(CCCCC)(C)C,water,0.019054607,11741,-1.72,
1287,2-methyl-2-heptanol,CC(CCCCC)(O)C,water,0.019054607,11741,-1.72,
1287,2-methyl-2-hexanol,OC(CCCC)(C)C,water,0.083176377,11739,-1.08,
1287,2-methyl-2-hexanol,CC(CCCC)(O)C,water,0.083176377,11739,-1.08,
1287,2-methyl-2-pentanol,OC(CCC)(C)C,water,0.323593657,11056,-0.49,
1287,2-methyl-2-pentanol,CC(CCC)(O)C,water,0.323593657,11056,-0.49,
1287,2-methyl-3-pentanol,OC(C(C)C)CC,water,0.199526231,10790,-0.7,
1287,2-methyl-3-pentanol,CC(C(CC)O)C,water,0.199526231,10790,-0.7,
1013,"2-methyl-3,5-dinitrobenzoic acid",O=[N+]([O-])c1cc(cc(C(=O)O)c1C)[N+]([O-])=O,water,0.003,89258,-2.6,
1287,2-methyl-4-(2-methylphenyl)diazenylaniline,c1(c(cccc1)C)N=Nc2cc(c(cc2)N)C,water,8.87156E-05,7063,-4.052000001,
1287,2-methyl-4-oxo-4-(phenylamino)butanoic acid,c1(ccccc1)NC(=O)CC(C(=O)O)C,water,2.426610095,252391,0.385,
1287,"2-methyl-5-(1,2,3,4-tetrahydroxybutyl)furan-3-carboxylic acid",c1(cc(c(o1)C)C(=O)O)C(C(C(CO)O)O)O,water,0.052966344,4143976,-1.276,
1287,2-methyl-5-nitroquinolin-8-ol,c21c(c(ccc1[N+](=O)[O-])O)nc(cc2)C,water,0.000109648,10469020,-3.959999998,
1287,2-methyl-6-nitro-4(1H)-quinazolinone,c21c(ccc(c1)[N+](=O)[O-])N=C(NC2=O)C,water,0.006095369,195942,-2.215,
1287,2-methylacridin-9-amine,c21c(c3c(nc1ccc(c2)C)cccc3)N,water,0.004083194,29330,-2.389,
1287,2-methylaniline,Nc1c(cccc1)C,water,0.141253754,13854136,-0.85,
1287,2-Methylanthracene,Cc3cc1c(cc2c(c1)cccc2)cc3,water,1.09648E-07,11442,-6.959999286,
1287,2-methylbenzimidazole,[nH]1c(nc2c1cccc2)C,water,0.010964782,11489,-1.96,
907,2-methylbenzoic acid,O=C(O)c1ccccc1C,water,0.009,8070,-2.060480747,
907,2-methylbenzoic acid,O=C(O)c1ccccc1C,water,0.009,8070,-2.056505484,
1287,2-methylbenzoic acid,O=C(O)c1ccccc1C,water,0.008709636,8070,-2.06,
1287,2-Methylbut-1-ene,C(C)C(=C)C,water,0.001862087,10766,-2.73,
1287,2-Methylbut-2-ene,CC(=CC)C,water,0.002754229,10113,-2.56,
1287,2-methylbutane,C(CC)(C)C,water,0.000660693,6308,-3.18,
1287,2-methylcyclohexanone,O=C1C(CCCC1)C,water,0.114815362,10939,-0.94,
1287,2-methylheptane,C(CCCCC)(C)C,water,8.31764E-06,11106,-5.079999985,
1287,2-Methylpent-1-ene,C(CC(=C)C)C,water,0.000933254,12446,-3.03,
1287,2-methylpentane,CC(CCC)C,water,0.00018197,7604,-3.74,
1287,2-methylpentane,C(CCC)(C)C,water,0.00018197,7604,-3.74,
1287,2-methylphenanthrene,Cc3cc1c(c2c(cc1)cccc2)cc3,water,1.44544E-06,16391,-5.839999931,
1287,2-methylpiperazine,N1C(CNCC1)C,water,5.495408739,59447,0.74,
1287,2-methylprop-1-ene,CC(=C)C,water,0.004677351,7957,-2.33,
1287,2-Methylpropane,C(C)(C)C,water,0.002818383,6120,-2.55,
1287,2-methylpropanol,C(C(C)C)O,water,1.096478196,6312,0.04,
1287,2-methylpropanol,OCC(C)C,water,1.096478196,6312,0.04,
1287,2-methylpropylbenzene,C(Cc1ccccc1)(C)C,water,7.58578E-05,10410,-4.119999997,
1287,2-methylpteridine,n2c1nccnc1cnc2C,water,0.758577575,512605,-0.12,
1287,2-methylquinolin-4-ol,n1c2c(c(cc1C)O)cccc2,water,0.063095734,62307,-1.2,
1287,2-methylsulfanylpteridine,n1c2c(ncc1)nc(SC)nc2,water,0.017538805,720309,-1.756,
1287,2-methylsulfanylpteridine,n1c2c(ncc1)nc(SC)nc2,water,0.017378008,720309,-1.76,
1287,2-methyltetrahydrofuran,O1C(CCC1)C,water,1.288249552,7028,0.11,
1049,2-naphthol,c1ccc2cc(ccc2c1)O,water,0.005382698,8341,-2.269,
1287,2-naphthol,Oc1cc2c(cc1)cccc2,water,0.005248075,8341,-2.28,
1287,2-nitro-3-phenylphenol,c1(c(c(ccc1)O)[N+](=O)[O-])-c2ccccc2,water,0.000111429,13683286,-3.953000001,
1287,"2-nitro-5-phenylcyclohexane-1,3-dione",C2(c1ccccc1)CC(=O)C(C(=O)C2)[N+](=O)[O-],water,0.021428906,10469229,-1.669,
1287,2-nitro-5-phenylphenol,c1(cc(c(cc1)[N+](=O)[O-])O)-c2ccccc2,water,0.000139316,78871,-3.856000001,
1287,2-nitro-9h-fluorene,[O-][N+](=O)c3ccc2c1ccccc1Cc2c3,water,1.89234E-05,11338,-4.723000004,
1287,2-nitroacetanilide,[N+](=O)([O-])c1c(cccc1)NC(=O)C,water,0.012302688,10619,-1.91,
1287,2-nitroaniline,[N+](=O)([O-])c1c(cccc1)N,water,0.010964782,13853943,-1.96,
1287,2-nitroanisole,[O-][N+](=O)c1ccccc1OC,water,0.010964782,6781,-1.96,
1287,2-Nitrobenzoic acid,c1(c(cccc1)C(=O)O)[N+](=O)[O-],water,0.033573761,10616,-1.474,
1287,2-NITRONAPHTHALENE,c21c(ccc(c1)[N+](=O)[O-])cccc2,water,0.000149968,10914,-3.823999999,
1287,2-nitrophenol,[N+](=O)([O-])c1c(cccc1)O,water,0.018197009,13837787,-1.74,
1287,2-nitropropane,[N+](=O)([O-])C(C)C,water,0.239883292,387,-0.62,
1287,2-nitropropane,CC(C)[N+](=O)[O-],water,0.239883292,387,-0.62,
1287,2-nitrotoluene,[N+](=O)([O-])c1c(cccc1)C,water,0.004677351,21106144,-2.33,
1287,2-nitrotoluene,c1(c(cccc1)[N+](=O)[O-])C,water,0.004897788,21106144,-2.31,
1287,2-nonanol,OC(CCCCCCC)C,water,0.001819701,11861,-2.74,
1287,2-nonanone,O=C(CCCCCCC)C,water,0.002630268,12632,-2.58,
1287,2-octanol,OC(CCCCCC)C,water,0.008128305,18920,-2.09,
1287,2-octanol,CC(CCCCCC)O,water,0.008128305,18920,-2.09,
1287,2-octanone,O=CCCCCCCC,water,0.008912509,7802,-2.05,
1287,"2-oxo-3,3-di(phenyl)propanoic acid",C(c1ccccc1)(c2ccccc2)C(=O)C(=O)O,water,0.004634469,196639,-2.334,
1287,2-oxopropyl 2-(6-methoxynaphthalen-2-yl)propanoate,c21c(cc(cc1)OC)ccc(c2)C(C(=O)OCC(=O)C)C,water,2.24905E-05,8215187,-4.648000001,
1287,2-pentanol,OC(CCC)C,water,0.512861384,21011,-0.29,
1287,2-pentanone,O=C(C)CCC,water,0.645654229,7607,-0.19,
1287,2-pentene,CC=CCC,water,0.002884032,4483639,-2.54,
1287,2-phenoxyethanol,O(CCO)c1ccccc1,water,0.19498446,13848467,-0.71,
1287,2-phenoxyethanol,C(COc1ccccc1)O,water,0.199526231,13848467,-0.7,
1287,"2-Phenyl-3,1-benzoxazin-4-one",N2=C(Oc1c(cccc1)C2=O)c3ccccc3,water,2.45471E-05,482968,-4.610000003,
1287,"2-phenyl-5-(2-phenyl-1,3-dioxolan-4-yl)-1,3-dioxolane-4-carboxylic acid",C3(C1OC(OC1)c2ccccc2)C(OC(O3)c4ccccc4)C(=O)O,water,0.003515604,10468904,-2.454,
1287,2-phenyl-N-(1-phenylethyl)acetamide,C(c1ccccc1)(NC(=O)Cc2ccccc2)C,water,0.00065013,2104868,-3.187,
1287,2-phenylethanol,OCCc1ccccc1,water,0.181970086,5830,-0.74,
1287,2-phenylphenol,Oc1c(cccc1)-c2ccccc2,water,0.004073803,13839012,-2.39,
1287,2-phenylsulfonylpropanamide,S(=O)(=O)(C(C(=O)N)C)c1ccccc1,water,0.022961486,13445797,-1.639,
1287,2-phenylsulfonylpropanoic acid,S(=O)(=O)(c1ccccc1)C(C(=O)O)C,water,0.130316678,279828,-0.885,
1287,2-propanol,OC(C)C,water,2.691534804,3644,0.43,
1287,2-propylpiperidine,N1C(CCCC1)CCC,water,0.031622777,9591,-1.5,
1287,2-pteridinethiol,Sc1nc2nccnc2cn1,water,0.004365158,10465570,-2.36,
1287,2-pteridinethiol,Sc1nc2nccnc2cn1,water,0.001698244,10465570,-2.77,
1287,2-quinolin-2-ylquinoline,n1c4c(ccc1-c2nc3c(cc2)cccc3)cccc4,water,3.98107E-06,8105,-5.399999968,
1287,2-thiouracil,S=C1NC=CC(=O)N1,water,0.005495409,1066108,-2.26,
1287,2-thiouracil,S=C1NC=CC(=O)N1,water,0.005370318,1066108,-2.27,
1287,2-toluenesulfonamide,S(=O)(=O)(N)c1c(cccc1)C,water,0.009549926,6658,-2.02,
1287,2-undecanol,OC(CCCCCCCCC)C,water,0.001148154,14700,-2.94,
1287,"2,2-bis(2-chlorophenoxy)acetic acid",C(Oc1c(cccc1)Cl)(Oc2c(cccc2)Cl)C(=O)O,water,0.001472313,36087,-2.832,
1287,"2,2-Dibutyl-N-hydroxyhexanamide",C(C(=O)NO)(CCCC)(CCCC)CCCC,water,6.98232E-05,2303736,-4.156000003,
1287,"2,2-dichloro-N-(3-chloro-1,4-dioxonaphthalen-2-yl)acetamide",ClC(Cl)C(=O)NC2=C(C(=O)c1c(cccc1)C2=O)Cl,water,9.33254E-06,85176,-5.03,
1287,"2,2-dichloro-N-[1,3-dihydroxy-1-(4-methylsulfonylphenyl)propan-2-yl]acetamide",ClC(Cl)C(=O)NC(C(O)c1ccc(cc1)S(=O)(=O)C)CO,water,0.007079458,5240,-2.15,
1287,"2,2-dichloro-N,N-di(prop-2-enyl)acetamide",ClC(Cl)C(=O)N(CC=C)CC=C,water,0.023988329,34686,-1.62,
1287,"2,2-Diethyl-N-hydroxydecanamide",CCCCCCCCC(CC)(CC)C(=O)NO,water,5.99791E-06,28295214,-5.221999983,
1287,"2,2-dihydroxy-N,N'-bis(4-methylphenyl)propanediamide",C(C(=O)Nc1ccc(cc1)C)(C(=O)Nc2ccc(cc2)C)(O)O,water,0.000799834,10469041,-3.097,
1287,"2,2-dimethyl-1-butanol",OCC(CC)(C)C,water,0.091201084,13801,-1.04,
1287,"2,2-dimethyl-1-butanol",C(C(CC)(C)C)O,water,0.091201084,13801,-1.04,
1287,"2,2-dimethyl-1-pentanol",OCC(C)(C)CCC,water,0.030199517,16022,-1.52,
1287,"2,2-dimethyl-1-pentanol",OCC(C)(C)CCC,water,0.398107171,16022,-0.4,
1287,"2,2-dimethyl-1-propanol",OCC(C)(C)C,water,0.398107171,6164,-0.4,
1287,"2,2-dimethyl-3-pentanol",OC(C(C)(C)C)CC,water,0.070794578,18717,-1.15,
1287,"2,2-Dimethylbutane",C(CC)(C)(C)C,water,0.000281838,6163,-3.55,
1287,"2,2-Dimethylbutane",CC(CC)(C)C,water,0.000281838,6163,-3.55,
948,"2,2-dimethylcyclopropanecarboxamide",O=C(N)C1CC1(C)C,water,0.201,499714,-0.696803943,
1287,"2,2-dimethylpentane",C(CCC)(C)(C)C,water,4.36516E-05,11055,-4.360000002,
1287,"2,2-dimethylpropylbenzene",C(Cc1ccccc1)(C)(C)C,water,7.07946E-05,13277,-4.150000003,
1287,"2,2,2-Trichloro-1,1-bis(4-chlorophenyl)ethanol",ClC(Cl)(Cl)C(O)(c1ccc(cc1)Cl)c2ccc(cc2)Cl,water,2.13796E-06,7970,-5.670000018,
1287,"2,2,2-trichloro-1,1-ethanediol",C(C(Cl)(Cl)Cl)(O)O,water,5.248074602,2606,0.72,
1287,"2,2,2-trichloroacetonitrile",ClC(Cl)(Cl)C#N,water,0.00676083,13861934,-2.17,
1287,"2,2,2-Trifluoro-1-phenylethanone",C(=O)(c1ccccc1)C(F)(F)F,water,0.0699842,9521,-1.155,
1287,"2,2,3-trimethyl-3-pentanol",OC(C(C)(C)C)(CC)C,water,0.05370318,22178,-1.27,
1287,"2,2,3-trimethyl-3-pentanol",CC(C(CC)(O)C)(C)C,water,0.05370318,22178,-1.27,
1287,"2,2,3-trimethylbutane",C(C(C)C)(C)(C)C,water,4.36516E-05,9649,-4.360000002,
1287,"2,2,4-Triethyl-N-hydroxyoctanamide",CCCCC(CC)CC(CC)(CC)C(=O)NO,water,0.000451856,28295156,-3.345,
1287,"2,2,4-trimethylpentane",C(CC(C)C)(C)(C)C,water,1.8197E-05,10445,-4.73999999,
1287,"2,2,4-trimethylpentane",CC(CC(C)C)(C)C,water,1.8197E-05,10445,-4.73999999,
1287,"2,2,5-Trimethylhexane",C(CCC(C)C)(C)(C)C,water,8.91251E-06,17976,-5.050000019,
1287,"2,2'-(1,2-Ethanediyldisulfanediyl)bis(phenylacetic acid)",c1ccc(cc1)C(C(=O)O)SCCSC(c2ccccc2)C(=O)O,water,0.000389942,28295160,-3.409,
1287,"2,2'-dichlorobiphenyl",Clc2ccccc2c1c(Cl)cccc1,water,5.37032E-06,23886,-5.269999997,
1287,"2,2'-Dichloroethyl ether",O(CC(Cl)Cl)CC(Cl)Cl,water,0.075857758,56171,-1.12,
1287,"2,2',3,3',4-pentachlorobiphenyl",Clc2ccc(c1cccc(Cl)c1Cl)c(Cl)c2Cl,water,8.9125E-08,36975,-7.050000457,
1287,"2,2',3,3',4,4'-Hexachlorodiphenyl ether",O(c1c(c(c(cc1)Cl)Cl)Cl)c2c(c(c(cc2)Cl)Cl)Cl,water,7.244E-09,83406,-8.140021558,
1287,"2,2',3,3',4,4',5-Heptachlorodiphenyl ether",O(c1c(c(c(c(c1)Cl)Cl)Cl)Cl)c2c(c(c(cc2)Cl)Cl)Cl,water,7.59E-10,83407,-9.119758224,
1287,"2,2',3,3',4,4',5,5'-octachlorobiphenyl",Clc1c(cc(Cl)c(Cl)c1Cl)c2cc(Cl)c(Cl)c(Cl)c2Cl,water,6.92E-10,34192,-9.159893906,
1287,"2,2',3,3',4,4',5,5'-octachlorodiphenyl ether",O(c1c(c(c(c(c1)Cl)Cl)Cl)Cl)c2c(c(c(c(c2)Cl)Cl)Cl)Cl,water,7.4E-11,4955843,-10.13076828,
1287,"2,2',3,3',4,4',5,5',6-nonachlorobiphenyl",Clc1c(c(Cl)c(Cl)c(Cl)c1Cl)c2cc(Cl)c(Cl)c(Cl)c2Cl,water,5.5E-11,35206,-10.25963731,
1287,"2,2',3,3',4,4',5,5',6'-nonachlorodiphenyl ether",O(c1c(c(c(c(c1)Cl)Cl)Cl)Cl)c2c(c(c(c(c2Cl)Cl)Cl)Cl)Cl,water,2.8E-11,41361,-10.55284197,
1287,"2,2',3,3',4,4',6-heptachlorobiphenyl",Clc1c(c(Cl)c(Cl)c(Cl)c1)c2ccc(Cl)c(Cl)c2Cl,water,5.012E-09,36983,-8.299988938,
1287,"2,2',3,3',4,5-hexachlorobiphenyl",Clc1c(cc(Cl)c(Cl)c1Cl)c2cccc(Cl)c2Cl,water,3.802E-09,37745,-8.419987887,
1287,"2,2',3,3',4,5-hexachlorobiphenyl",Clc1c(cc(Cl)c(Cl)c1Cl)c2cccc(Cl)c2Cl,water,1.66E-09,37745,-8.779891912,
1287,"2,2',3,3',4,5,5',6,6'-nonachlorobiphenyl",Clc1c(c(Cl)c(Cl)c(Cl)c1Cl)c2c(Cl)c(Cl)cc(Cl)c2Cl,water,3.9E-11,36989,-10.40893539,
1287,"2,2',3,3',4,5,5',6'-octachlorodiphenyl ether",O(c1c(c(c(c(c1)Cl)Cl)Cl)Cl)c2c(c(cc(c2Cl)Cl)Cl)Cl,water,7.9E-11,139518,-10.10237291,
1287,"2,2',3,3',4',5,6-Heptachlorodiphenyl ether",O(c1c(c(cc(c1Cl)Cl)Cl)Cl)c2c(c(c(cc2)Cl)Cl)Cl,water,8.13E-10,84383,-9.089909454,
1287,"2,2',3,3',5,5'-Hexachlorobiphenyl",c1(c(c(cc(c1)Cl)Cl)Cl)-c2c(c(cc(c2)Cl)Cl)Cl,water,1.09648E-07,34190,-6.959999286,
1287,"2,2',3,3',5,6-hexachlorobiphenyl",Clc2c(c1cccc(Cl)c1Cl)c(Cl)c(Cl)cc2Cl,water,2.512E-09,37000,-8.599980365,
1287,"2,2',3,3',5,6-hexachlorobiphenyl",Clc2c(c1cccc(Cl)c1Cl)c(Cl)c(Cl)cc2Cl,water,1.2589E-08,37000,-7.900008766,
1287,"2,2',3,3',6,6'-hexachlorobiphenyl",Clc2c(c1c(Cl)ccc(Cl)c1Cl)c(Cl)ccc2Cl,water,2.239E-09,34859,-8.649945906,
1287,"2,2',3,4,4'-pentachlorodiphenyl ether",O(c1c(c(c(cc1)Cl)Cl)Cl)c2c(cc(cc2)Cl)Cl,water,3.6308E-08,84322,-7.439997673,
1287,"2,2',3,4,4',5,5'-Heptachlorodiphenyl ether",O(c1c(c(c(c(c1)Cl)Cl)Cl)Cl)c2c(cc(c(c2)Cl)Cl)Cl,water,3.16E-10,83427,-9.500312917,
1287,"2,2',3,4,4',5,5',6-octachlorodiphenyl ether",O(c1c(c(c(c(c1Cl)Cl)Cl)Cl)Cl)c2c(cc(c(c2)Cl)Cl)Cl,water,7.2E-11,83428,-10.1426675,
1287,"2,2',3,4,4',5'-hexachlorobiphenyl",Clc1c(cc(Cl)c(Cl)c1Cl)c2ccc(Cl)cc2Cl,water,4.0738E-08,34191,-7.390000296,
1287,"2,2',3,4,4',5'-hexachlorobiphenyl",Clc1c(cc(Cl)c(Cl)c1Cl)c2ccc(Cl)cc2Cl,water,4.786E-09,34191,-8.320027306,