Experiment Number (900 series refer to external references),solute,solute SMILES,solvent,concentration (M),csid,solubility,
1287,chloropicrin,[N+](=O)([O-])C(Cl)(Cl)Cl,water,0.01,13861343,-2,
1287,chloropicrin,ClC(Cl)(Cl)[N+](=O)[O-],water,0.01,13861343,-2,
1287,chlorothalonil,Clc1c(C#N)c(Cl)c(C#N)c(Cl)c1Cl,water,2.29087E-06,13861400,-5.639999934,
1287,chlorothalonil,Clc1c(C#N)c(Cl)c(C#N)c(Cl)c1Cl,water,2.23872E-05,13861400,-4.650000007,
1287,chloroxuron,Clc1ccc(cc1)Oc2ccc(cc2)NC(=O)N(C)C,water,1.28825E-05,15299,-4.889999984,
1287,chlorpheniramine,CN5CC4CC5CN4c1cc2N(\C=C(\C(O)=O)C(=O)c2cc1F)C3CC3,water,0.002154269,10696636,-2.6667,
1287,chlorpromazine,CN(C)CCCN1c2ccccc2Sc3c1cc(cc3)Cl,water,9.77237E-06,2625,-5.010000009,
1287,chlorpromazine,CN(C)CCCN1c2ccccc2Sc3c1cc(cc3)Cl,water,8.49963E-06,2625,-5.070599979,
1287,chlorpropamide,O=S(=O)(c1ccc(Cl)cc1)NC(=O)NCCC,water,0.000933254,2626,-3.03,
1287,chlorpropamide,O=S(=O)(c1ccc(Cl)cc1)NC(=O)NCCC,water,0.000564417,2626,-3.2484,
1287,chlorpropham,Clc1cc(ccc1)NC(=O)OC(C)C,water,0.00040738,2627,-3.39,
1287,chlorpropham,Clc1cc(ccc1)NC(=O)OC(C)C,water,0.000416869,2627,-3.38,
1287,chlorprothixene,Clc2cc1C(\c3c(Sc1cc2)cccc3)=C/CCN(C)C,water,1.80011E-07,580849,-6.744700955,
1049,chlorthalidone,O=S(=O)(N)c1c(Cl)ccc(c1)C2(O)c3ccccc3C(=O)N2,water,0.000461318,2631,-3.336,
1287,chlorthalidone,O=S(=O)(N)c1c(Cl)ccc(c1)C2(O)c3ccccc3C(=O)N2,water,0.000354813,2631,-3.45,
1049,chlorzoxazone,Clc2cc1c(OC(=O)N1)cc2,water,0.001339677,2632,-2.873,
1287,chlorzoxazone,Clc2cc1c(OC(=O)N1)cc2,water,0.001479108,2632,-2.83,
1287,chlorzoxazone,c1cc(ccc1O)I,water,0.002205464,10432,-2.6565,
1287,cholesterol,CC(C)CCC[C@@H](C)[C@@H]4[C@]3(CC[C@@H]2[C@]1(CC[C@@H](CC1=CC[C@H]2[C@@H]3CC4)O)C)C,water,0.0000001,5775,-7,
1287,cholic acid,OC3C4(C(C1C(C2(C(CC1O)CC(CC2)O)C)C3)CCC4C(CCC(=O)O)C)C,water,0.00042658,297,-3.37,
1287,chrysene,c1ccc2c(c1)ccc3c2ccc4c3cccc4,water,8.71E-09,8817,-8.059981845,
968,cimetidine,N#CN\C(=N/C)NCCSCc1ncnc1C,water,0.024,2654,-1.618013671,
1049,cimetidine,N#CN\C(=N/C)NCCSCc1ncnc1C,water,0.084333476,2654,-1.074,
1287,cimetidine,S(CCNC(=NC#N)NC)Cc1nc[nH]c1C,water,0.044668359,2654,-1.35,
1287,cimetidine,c1(c([nH]cn1)C)CSCCNC(=NC#N)NC,water,0.019498446,2654,-1.71,
1287,cimetidine,N#CN\C(=N/C)NCCSCc1ncnc1C,water,0.020342297,2654,-1.6916,
1287,cinchonidine,n2c1c(cccc1)c(cc2)[C@@H](O)[C@H]3N4CC[C@@H](C3)[C@@H](/C=C)C4,water,0.004497799,91930,-2.347,
1287,cinchonidine,n2c1c(cccc1)c(cc2)[C@@H](O)[C@H]3N4CC[C@@H](C3)[C@@H](/C=C)C4,water,0.000851138,91930,-3.07,
1287,cinmetacin,n1(c2c(c(c1C)CC(=O)O)cc(cc2)OC)C(=O)C=Cc3ccccc3,water,2.88403E-06,4938825,-5.539999925,
902,cinnamic acid,O=C(O)C=Cc1ccccc1,water,0.003332221,392447,-2.477266166,
902,cinnamic acid,O=C(O)C=Cc1ccccc1,water,0.004085813,392447,-2.388721548,
907,cinnamic acid,O=C(O)C=Cc1ccccc1,water,0.003,392447,-2.476253533,
907,cinnamic acid,O=C(O)C=Cc1ccccc1,water,0.003,392447,-2.462180905,
907,cinnamic acid,O=C(O)C=Cc1ccccc1,water,0.004,392447,-2.41453927,
1019,cinnamic acid,O=C(O)C=Cc1ccccc1,water,0.003311311,392447,-2.480000001,
1022,cinnamic acid,O=C(O)C=Cc1ccccc1,water,0.00494132,392447,-2.306157003,
1287,cinnamic acid,OC(=O)C=Cc1ccccc1,water,0.003311311,392447,-2.48,
1287,cinnamyl 2-aminobenzoate,c1(c(cccc1)N)C(=O)OCC=Cc2ccccc2,water,9.07821E-07,4447445,-6.041999775,
1287,ciprofloxacin,c1c2c(cc(c1F)N3CCNCC3)n(cc(c2=O)C(=O)O)C4CC4,water,0.000181552,2662,-3.741000001,
1287,ciprofloxacin,c1c2c(cc(c1F)N3CCNCC3)n(cc(c2=O)C(=O)O)C4CC4,water,0.000253221,2662,-3.596499999,
1287,citral,O=CC=C(CCC=C(C)C)C,water,0.008709636,553578,-2.06,
1320,citric acid anhydrous,O=C(O)CC(O)(C(=O)O)CC(=O)O,water,4.808932203,305,0.682048654,
1287,citric acid monohydrate,O=C(O)CC(O)(C(=O)O)CC(=O)O,water,3.235936569,305,0.51,
1049,clofazimine,Clc1ccc(cc1)NC=3/C(=N/C(C)C)/C=C2/N(c4c(\N=C2C=3)cccc4)c5ccc(Cl)cc5,water,5.70164E-07,2692,-6.244,
1064,clonazepam,[O-][N+](=O)c3cc\1c(NC(=O)C/N=C/1c2ccccc2Cl)cc3,water,0.0001,2700,-4,
1287,clonazepam,[O-][N+](=O)c3cc\1c(NC(=O)C/N=C/1c2ccccc2Cl)cc3,water,3.86367E-05,2700,-4.412999997,
1287,clonazepam,[O-][N+](=O)c3cc\1c(NC(=O)C/N=C/1c2ccccc2Cl)cc3,water,0.000316228,2700,-3.5,
1287,coniine,N1C(CCCC1)CC,water,0.031622777,85018,-1.5,
1287,coronene,c1cc2ccc3ccc4ccc5ccc6ccc1c7c2c3c4c5c67,water,4.68E-10,8761,-9.329754147,
1049,corticosterone,O=C4\C=C2/[C@]([C@H]1[C@@H](O)C[C@@]3([C@@H](C(=O)CO)CC[C@H]3[C@@H]1CC2)C)(C)CC4,water,0.000662217,5550,-3.179,
1287,corticosterone,OC2C3C(C1C(C(CC1)C(=O)CO)(C2)C)CCC4=CC(=O)CCC43C,water,0.00057544,388799,-3.24,
1287,corticosterone,C1(=O)CCC3(C(=C1)CCC4C2CCC(C(=O)CO)C2(C)CC(O)C43)C,water,0.00057544,388799,-3.24,
1049,cortisone,O=C(CO)[C@@]3(O)CC[C@H]2[C@@H]4CC\C1=C\C(=O)CC[C@]1(C)[C@H]4C(=O)C[C@@]23C,water,0.000668344,193441,-3.175,
1287,cortisone,O=C(CO)[C@@]3(O)CC[C@H]2[C@@H]4CC\C1=C\C(=O)CC[C@]1(C)[C@H]4C(=O)C[C@@]23C,water,0.000776247,193441,-3.11,
1287,coumachlor,Clc1ccc(cc1)C(CC(=O)C)C3=C(c2c(cccc2)OC3=O)O,water,1.44544E-06,10443016,-5.839999931,
1287,coumarin,O2c1c(cccc1)C=CC2=O,water,0.012882496,13848793,-1.89,
1287,coumarin,O1C(=O)C=Cc2ccccc21,water,0.018620871,13848793,-1.73,
1287,coumatetralyl,O2c1c(cccc1)C(=C(C2=O)C3CCCc4c3cccc4)O,water,0.00144544,10468736,-2.84,
907,crotonic acid,O=C(O)/C=C/C,water,0.999,552744,-0.000477987,
964,crotonic acid,O=C(O)/C=C/C,water,1.045,552744,0.019293837,
1287,cycloate,S(CC)C(=O)N(C1CCCCC1)CC,water,0.000398107,13698,-3.4,
1287,cyclobarbital,N1C(=O)NC(=O)C(C1=O)(CC)C2=CCCCC2,water,0.00676083,5632,-2.17,
1287,cyclobutyl-5-spirobarbituric acid,N2C(=O)NC(=O)C1(CCC1)C2=O,water,0.022387211,10437527,-1.65,
1287,"cyclohepta-1,3,5-triene",C1C=CC=CC=C1,water,0.007079458,10534,-2.15,
1287,Cycloheptane,C1CCCCCC1,water,0.000301995,8908,-3.52,
1287,cycloheptanol,OC1CCCCCC1,water,0.131825674,9970,-0.88,
1287,cycloheptene,C1CCC=CCC1,water,0.000660693,11857,-3.18,
1287,cycloheptyl-5-spirobarbituric acid,N2C(=O)NC(=O)C1(CCCCCC1)C2=O,water,0.000676083,10438576,-3.17,
1287,cyclohexane,C1CCCCC1,water,0.000794328,7787,-3.1,
932,cyclohexanecarboxylic acid,C1CCC(CC1)C(=O)O,water,0.036,7135,-1.445025165,
1287,cyclohexanecarboxylic acid,OC(=O)C1CCCCC1,water,0.035481339,7135,-1.45,
1287,cyclohexanol,OC1CCCCC1,water,0.363078055,7678,-0.44,
1287,cyclohexanol,C1(CCCCC1)O,water,0.363078055,7678,-0.44,
1287,cyclohexanol acetate,O(C1CCCCC1)C(=O)C,water,0.021379621,11647,-1.67,
1287,cyclohexanone,O=C1CCCCC1,water,0.251188643,7679,-0.6,
1287,cyclohexanone,C1(=O)CCCCC1,water,0.251188643,7679,-0.6,
1287,cyclohexene,C1CCC=CC1,water,0.002570396,7788,-2.59,
1287,cycloheximide,N1C(=O)CC(CC1=O)CC(O)C2CC(CC(C2=O)C)C,water,0.074131024,2797,-1.13,
1287,cyclohexyl-5-spirobarbituric acid,N2C(=O)NC(=O)C1(CCCCC1)C2=O,water,0.000870964,5636,-3.06,
1287,cyclohexylsulfonylcyclohexane,S(=O)(=O)(C1CCCCC1)C2CCCCC2,water,0.008689604,11379410,-2.061,
1287,cyclooctanol,OC1CCCCCCC1,water,0.051286138,12241,-1.29,
1287,cyclooctyl-5-spirobarbituric acid,N2C(=O)NC(=O)C1(CCCCCCC1)C2=O,water,0.001047129,10439062,-2.98,
1287,cyclopentane,C1CCCC1,water,0.002290868,8896,-2.64,
1287,cyclopentene,C1CC=CC1,water,0.007943282,8544,-2.1,
1287,cyclopentene,C1=CCCC1,water,0.007943282,8544,-2.1,
1287,cyclopentyl-5-spirobarbituric acid,N2C(=O)NC(=O)C1(CCCC1)C2=O,water,0.004466836,225573,-2.35,
1287,cyclopropyl-5-spirobarbituric acid,N2C(=O)NC(=O)C1(CC1)C2=O,water,0.012882496,214165,-1.89,
1287,cycluron,N(C1CCCCCCC1)C(=O)N(C)C,water,0.004365158,15694,-2.36,
1287,cyhalothrin,FC(F)(F)C(=CC1C(C1C(=O)OC(c2cc(ccc2)Oc3ccccc3)C#N)(C)C)Cl,water,6.607E-09,8519181,-8.179995693,
1287,cymene,c1cc(ccc1C(C)C)C,water,0.000169824,7183,-3.770000001,
1287,cyproheptadine,C3(=C1CCN(CC1)C)c2c(cccc2)C=Cc4c3cccc4,water,0.000809096,2810,-3.092,
1287,cys,C([C@@H](C(=O)O)N)S,water,0.064998001,5653,-1.1871,
1287,cytisine,N2CC3CN1C(=CC=CC1=O)C(C2)C3,water,2.290867653,21030,0.36,
1049,cytosine,c1cnc(=O)[nH]c1N,water,0.061235039,577,-1.213,
1287,cytosine,N1C=CC(=NC1=O)N,water,0.072443596,577,-1.14,
1287,d-camphoric acid,OC(=O)C1(C(C(CC1)C(=O)O)(C)C)C,water,0.03801894,20198,-1.42,
1287,d-fenchone,O=C2C1(CC(CC1)C2(C)C)C,water,0.014125375,13869,-1.85,
1287,D-fructose,O[C@H]1[C@H](O)[C@H](O[C@]1(O)CO)CO,water,4.365158322,388775,0.64,
1287,D-glucose,C([C@@H]1[C@H]([C@@H]([C@H](C(O1)O)O)O)O)O,water,5.495408739,5589,0.74,
1310,D-glucose,O[C@H]1[C@H](O)[C@H](OC(O)[C@@H]1O)CO,water,5.04563,5589,0.7029154,
1287,d-inositol,OC1C(C(C(C(C1O)O)O)O)O,water,2.238721139,868,0.35,
1287,d-quercitol,OC1C(C(CC(C1O)O)O)O,water,0.676082975,91903,-0.17,
1287,"d,l-mepivacaine",N1(C(CCCC1)C(=O)Nc2c(cccc2C)C)C,water,0.028183829,3922,-1.55,
1287,daminozide,N(NC(=O)CCC(=O)O)(C)C,water,0.630957344,14593,-0.2,
1287,danazol,n1oc5c(c1)CC4(C3C(C2C(C(CC2)(O)C#C)(CC3)C)CCC4=C5)C,water,3.0903E-06,2844,-5.510000061,
1287,danazol,C#C[C@]5(O)CC[C@H]4[C@H]3[C@@H]([C@@]2(/C(=C\c1oncc1C2)CC3)C)CC[C@@]45C,water,3.11172E-06,26436,-5.507000047,
1287,danofloxacin,O=C(O)\C4=C\N(c3cc(N1C[C@H]2N(C)C[C@@H]1C2)c(F)cc3C4=O)C5CC5,water,0.001260085,64439,-2.8996,
1049,dapsone,O=S(=O)(c1ccc(N)cc1)c2ccc(N)cc2,water,0.000851138,2849,-3.07,
1287,dapsone,S(=O)(=O)(c1ccc(cc1)N)c2ccc(cc2)N,water,0.001513561,2849,-2.82,
1287,dazomet,S1CN(CN(C1=S)C)C,water,0.007413102,10332,-2.13,
1287,DDE,Clc2ccc(\C(=C(/Cl)Cl)c1ccc(Cl)cc1)cc2,water,1.25893E-07,2927,-6.899998417,
1287,DDT,Clc1ccc(cc1)C(c2ccc(Cl)cc2)C(Cl)(Cl)Cl,water,7.0795E-08,2928,-7.149997414,
1287,DDT,Clc1ccc(cc1)C(c2ccc(Cl)cc2)C(Cl)(Cl)Cl,water,8.318E-09,2928,-8.079981084,
1287,Dec-1-ene,C(CCCC)CCCC=C,water,3.0903E-06,12809,-5.510000061,
1287,decachlorobiphenyl,Clc1c(c(Cl)c(Cl)c(Cl)c1Cl)c2c(Cl)c(Cl)c(Cl)c(Cl)c2Cl,water,2E-12,15484,-11.69897,
1287,decachlorodiphenyl ether,O(c1c(c(c(c(c1Cl)Cl)Cl)Cl)Cl)c2c(c(c(c(c2Cl)Cl)Cl)Cl)Cl,water,1.12E-13,33000,-12.95078198,
1287,decanebis(thioic S-acid),C(=S)(CCCCCCCCC(=S)O)O,water,0.0008531,10469036,-3.069,
998,decanoic acid,O=C(O)CCCCCCCCC,water,0.000,2863,-3.44,
1287,decanoic acid,O=C(O)CCCCCCCCC,water,0.000363078,2863,-3.44,
1287,decyl 2-hydroxypropanoate,C(=O)(C(O)C)OCCCCCCCCCC,water,0.00086896,308564,-3.061,
1287,decylsulfanylmethanimidamide,S(C(=N)N)CCCCCCCCCC,water,0.001949845,71676,-2.71,
1287,DEF,S(P(=O)(SCCCC)SCCCC)CCCC,water,7.24436E-06,4944,-5.139999976,
1287,deoxycholic acid,C[C@H](CCC(=O)O)[C@H]1CC[C@@H]2[C@@]1([C@H](C[C@H]3[C@H]2CC[C@H]4[C@@]3(CC[C@H](C4)O)C)O)C,water,0.000269774,193196,-3.569,
1287,deoxycholic acid,C[C@H](CCC(=O)O)[C@H]1CC[C@@H]2[C@@]1([C@H](C[C@H]3[C@H]2CC[C@H]4[C@@]3(CC[C@H](C4)O)C)O)C,water,0.000112202,193196,-3.950000002,
1287,deoxycholic acid,C[C@H](CCC(=O)O)[C@H]1CC[C@@H]2[C@@]1([C@H](C[C@H]3[C@H]2CC[C@H]4[C@@]3(CC[C@H](C4)O)C)O)C,water,2.80027E-05,193196,-4.552799999,
1049,deoxycorticosterone,O=C4\C=C2/[C@]([C@H]1CC[C@@]3([C@@H](C(=O)CO)CC[C@H]3[C@@H]1CC2)C)(C)CC4,water,0.000257632,5932,-3.589,
1287,deoxycorticosterone,OCC(=O)C4C3(C(C2C(C1(CCC(=O)C=C1CC2)C)CC3)CC4)C,water,0.000177828,194204,-3.75,
1287,deoxycorticosterone,O=C(C4C3(C(C2C(C1(C(=CC(=O)CC1)CC2)C)CC3)CC4)C)CO,water,0.000354813,194204,-3.45,
1287,deoxycorticosterone acetate,O(CC(=O)C4C3(C(C2C(C1(CCC(=O)C=C1CC2)C)CC3)CC4)C)C(=O)C,water,2.34423E-05,2894,-4.630000003,
1287,DES,Oc1ccc(cc1)C(=C(CC)c2ccc(cc2)O)CC,water,4.46684E-05,599550,-4.350000002,
1287,DES,Oc1ccc(cc1)C(=C(CC)c2ccc(cc2)O)CC,water,8.51138E-05,599550,-4.069999999,
1287,desipramine,c1cc3c(cc1)CCc2c(cccc2)N3CCCNC,water,0.000218776,2888,-3.660000001,
1287,desipramine,c1cc3c(cc1)CCc2c(cccc2)N3CCCNC,water,0.000235668,2888,-3.627699999,
1287,desmedipham,N(c1cc(ccc1)OC(=O)Nc2ccccc2)C(=O)OCC,water,2.34423E-05,23133,-4.630000003,
1287,devrinol,O=C(N(CC)CC)C(Oc2cccc1ccccc12)C,water,0.000269153,25304,-3.570000001,
1049,dexamethasone,O=C(CO)[C@]3(O)[C@]2(C[C@H](O)[C@]4(F)[C@@]/1(\C(=C/C(=O)\C=C\1)CC[C@H]4[C@@H]2C[C@H]3C)C)C,water,0.000208449,5541,-3.681,
1287,dexamethasone,O=C(CO)[C@]3(O)[C@]2(C[C@H](O)[C@]4(F)[C@@]/1(\C(=C/C(=O)\C=C\1)CC[C@H]4[C@@H]2C[C@H]3C)C)C,water,0.000229087,5541,-3.640000001,
1287,dexamethasone,O=C(CO)[C@]3(O)[C@]2(C[C@H](O)[C@]4(F)[C@@]/1(\C(=C/C(=O)\C=C\1)CC[C@H]4[C@@H]2C[C@H]3C)C)C,water,0.000142889,5541,-3.845,
1287,dexamethasone,O=C(CO)[C@]3(O)[C@]2(C[C@H](O)[C@]4(F)[C@@]/1(\C(=C/C(=O)\C=C\1)CC[C@H]4[C@@H]2C[C@H]3C)C)C,water,0.000245471,5541,-3.609999999,
1287,di-(2-ethylhexyl)-phthalate,c1(c(cccc1)C(=O)OCC(CCCC)CC)C(=O)OCC(CCCC)CC,water,4.3551E-08,21106505,-7.361001868,
1287,di-(2-ethylhexyl)-phthalate,O(CC(CCCC)CC)C(=O)c1c(cccc1)C(=O)OCC(CCCC)CC,water,1.09648E-07,21106505,-6.959999286,
1287,di-(2-ethylhexyl)-phthalate,C(=O)(c1c(cccc1)C(=O)OCC(CCCC)CC)OCC(CCCC)CC,water,1.09648E-07,21106505,-6.959999286,
1287,di-(p-aminophenyl)methane,Nc1ccc(cc1)Cc2ccc(cc2)N,water,0.005011872,7296,-2.3,
1287,di-n-propylsulfide,S(CCC)CCC,water,0.002630268,7827,-2.58,
1325,di(2-ethylhexyl) phthalate,CCCCC(CC)COC(=O)C1=CC=CC=C1C(=O)OCC(CC)CCCC,water,6.45654E-09,21106505,-8.19000002,
1287,di(phenyl)-piperidin-2-ylmethanol,C(C1NCCCC1)(c2ccccc2)(c3ccccc3)O,water,0.01250259,9681,-1.903,
1287,di(phenyl)-piperidin-4-ylmethanol,C(C1CCNCC1)(c2ccccc2)(c3ccccc3)O,water,0.041114972,14952,-1.386,
1287,dialifos,ClCC(SP(=S)(OCC)OCC)N2C(=O)c1c(cccc1)C2=O,water,4.57088E-07,23490,-6.34000018,
1287,dialifos,ClCC(SP(=S)(OCC)OCC)N2C(=O)c1c(cccc1)C2=O,water,1.41254E-06,23490,-5.84999986,
1287,diallate,ClC(=CCl)CSC(=O)N(C(C)C)C(C)C,water,8.31764E-05,4447452,-4.080000001,
1287,diallate,ClC(=CCl)CSC(=O)N(C(C)C)C(C)C,water,8.70964E-05,4447452,-4.06,
1287,diallyl phthalate,O=C(OC\C=C)c1ccccc1C(=O)OC\C=C,water,0.00074131,8242,-3.13,
1287,diallyl phthalate,O=C(OC\C=C)c1ccccc1C(=O)OC\C=C,water,0.000174582,8242,-3.758000001,
1049,diatrizoic acid,Ic1c(c(I)c(c(I)c1NC(=O)C)C(=O)O)NC(=O)C,water,0.009862795,2055,-2.006,
969,diazepam,CN1c2ccc(cc2C(=NCC1=O)c3ccccc3)Cl,water,0.00015,2908,-3.823908741,
1287,diazepam,CN1c2ccc(cc2C(=NCC1=O)c3ccccc3)Cl,water,0.000177828,2908,-3.75,
1287,diazepam,CN1c2ccc(cc2C(=NCC1=O)c3ccccc3)Cl,water,0.000193197,2908,-3.713999999,
1287,diazepam,CN1c2ccc(cc2C(=NCC1=O)c3ccccc3)Cl,water,0.000228981,2908,-3.6402,
1287,diazinon,S=P(OCC)(OCC)Oc1nc(nc(c1)C)C(C)C,water,0.000229087,2909,-3.640000001,
1287,diazinon,S=P(OCC)(OCC)Oc1nc(nc(c1)C)C(C)C,water,0.000131522,2909,-3.881000001,
1287,diazoxide,Clc1ccc2c(c1)S(=O)(=O)/N=C(\N2)C,water,0.00043441,2911,-3.3621,
1287,"dibenz[a,h]anthracene",c1ccc2c(c1)ccc3c2cc4ccc5ccccc5c4c3,water,2.188E-09,5678,-8.659952682,
1287,dibenzamid,N(C(=O)c1ccccc1)C(=O)c2ccccc2,water,0.005370318,120185,-2.27,
1287,dibenzofuran,o1c3c(c2c1cccc2)cccc3,water,2.51189E-05,551,-4.600000005,
1287,dibenzofuran,o1c3c(c2c1cccc2)cccc3,water,3.63078E-05,551,-4.440000006,
1287,dibenzofuran-2-sulfonic acid,c21c3c(oc1ccc(c2)S(=O)(=O)O)cccc3,water,0.341979443,456041,-0.466,
1287,dibenzothiophene,c1ccc2c(c1)c3ccccc3s2,water,4.16869E-05,2915,-4.380000004,
1287,dibenzothiophene,c1ccc2c(c1)c3ccccc3s2,water,6.16595E-06,2915,-5.210000001,
1287,dibromomethane,BrCBr,water,0.067608298,2916,-1.17,
1287,dibucaine,O=C(c1c2ccccc2nc(OCCCC)c1)NCCN(CC)CC,water,0.00012218,2917,-3.913,
1287,dibucaine,O=C(c1c2ccccc2nc(OCCCC)c1)NCCN(CC)CC,water,0.000199526,2917,-3.700000001,
1287,dibutyl ether,O(CCCC)CCCC,water,0.014125375,8569,-1.85,
1287,Dibutyl hydrogen phosphate,P(=O)(OCCCC)(OCCCC)O,water,0.081846479,7593,-1.087,
1287,dibutyl phthalate,CCCCOC(=O)c1ccccc1C(=O)OCCCC,water,5.24807E-05,13837319,-4.28,
1287,dibutyl phthalate,CCCCOC(=O)c1ccccc1C(=O)OCCCC,water,3.98107E-05,13837319,-4.400000001,
1325,dibutyl phthalate,CCCCOC(=O)C1=CC=CC=C1C(=O)OCCCC,water,3.54813E-05,13837319,-4.45,
1287,dibutyl sebacate,CCCCOC(=O)CCCCCCCCC(=O)OCCCC,water,0.000254097,13837584,-3.594999999,
1287,dibutyl sebacate,CCCCOC(=O)CCCCCCCCC(=O)OCCCC,water,0.000125893,13837584,-3.900000001,
1287,dicamba,Clc1ccc(Cl)c(c1OC)C(=O)O,water,0.019952623,2922,-1.7,
1287,dicaphton,[N+](=O)([O-])c1cc(c(cc1)OP(=S)(OC)OC)Cl,water,4.89779E-05,16252,-4.309999999,
1287,Dichlorodifluoromethane,C(F)(F)(Cl)Cl,water,0.01023293,6151,-1.99,
1287,Dichloromethane,ClCCl,water,0.234422882,6104,-0.63,
1287,Dichloromethane,C(Cl)Cl,water,0.234422882,6104,-0.63,
1287,diclofenac,c1ccc(c(c1)CC(=O)O)Nc2c(cccc2Cl)Cl,water,0.000167494,2925,-3.775999999,
1287,diclofenac,c1ccc(c(c1)CC(=O)O)Nc2c(cccc2Cl)Cl,water,3.50026E-06,2925,-5.455899943,
1287,diclofop-methyl,Clc1c(ccc(c1)Cl)Oc2ccc(cc2)OC(C)C(=O)OC,water,0.000151356,36557,-3.82,
1325,didecyl phthalate,CCCCCCCCCCOC(=O)C1=CC=CC=C1C(=O)OCCCCCCCCCC,water,8.5114E-11,6530,-10.069999,
1287,dieldrin,ClC5(Cl)[C@]3(Cl)C(\Cl)=C(\Cl)[C@@]5(Cl)[C@H]4[C@H]1C[C@H]([C@@H]2O[C@H]12)[C@@H]34,water,5.12861E-07,10292746,-6.290000325,
1287,dienestrol,Oc1ccc(cc1)C(=CC)C(=CC)c2ccc(cc2)O,water,1.12202E-05,4512167,-4.949999982,
1287,dienestrol,Oc1ccc(cc1)C(C(c2ccc(cc2)O)C=C)C=C,water,1.12202E-05,10468466,-4.949999982,
1287,"diethoxy-sulfanylidene-(3,5,6-trichloropyridin-2-yl)oxyphosphorane",Clc1nc(c(cc1Cl)Cl)OP(=S)(OCC)OCC,water,2.13796E-06,2629,-5.670000018,
1287,"diethoxy-sulfanylidene-(3,5,6-trichloropyridin-2-yl)oxyphosphorane",P(=S)(Oc1c(cc(c(n1)Cl)Cl)Cl)(OCC)OCC,water,3.99025E-06,2629,-5.399000003,
1287,diethyl (4-nitrophenyl) phosphate,P(=O)(Oc1ccc(cc1)[N+](=O)[O-])(OCC)OCC,water,0.008729714,9026,-2.059,
1287,diethyl decanedioate,C(=O)(CCCCCCCCC(=O)OCC)OCC,water,0.000309742,7758,-3.509,
1287,diethyl ether,O(CC)CC,water,0.812830516,3168,-0.09,
1287,Diethyl hexanedioate,C(=O)(CCCCC(=O)OCC)OCC,water,0.020892961,13835108,-1.68,
1287,diethyl malonate,O=C(OCC)CC(=O)OCC,water,0.151356125,13863636,-0.82,
1287,Diethyl octanedioate,C(=O)(CCCCCCC(=O)OCC)OCC,water,0.002951209,15467,-2.53,
1287,Diethyl pentanedioate,C(=O)(CCCC(=O)OCC)OCC,water,0.046881338,12610,-1.329,
1287,diethyl phthalate,CCOC(=O)c1ccccc1C(=O)OCC,water,0.004216965,13837303,-2.375,
1287,diethyl phthalate,CCOC(=O)c1ccccc1C(=O)OCC,water,0.004466836,13837303,-2.35,
1325,diethyl phthalate,CCOC(=O)C1=CC=CC=C1C(=O)OCC,water,0.002630268,13837303,-2.58,
1287,"Diethyl piperazine-1,4-dicarboxylate",N1(C(=O)OCC)CCN(CC1)C(=O)OCC,water,0.186637969,71922,-0.729,
1287,diethyl succinate,O=C(CCC(=O)OCC)OCC,water,0.110153931,13865630,-0.958,
1287,diethyl succinate,O=C(CCC(=O)OCC)OCC,water,0.10964782,13865630,-0.96,
1287,diethyl sulfide,S(CC)CC,water,0.045708819,9233,-1.34,
1287,diethyl sulfone,S(=O)(=O)(CC)CC,water,1.096478196,62226,0.04,
1287,diethyldisulfide,S(SCC)CC,water,0.003801894,7786,-2.42,
1287,difenoxuron,N(C)(C)C(=O)Nc1ccc(cc1)Oc2ccc(cc2)OC,water,6.91831E-05,24757,-4.160000001,
1287,difloxacin,Fc1ccc(cc1)N\3c2cc(c(F)cc2C(=O)C(/C(=O)O)=C/3)N4CCN(C)CC4,water,0.000251304,50725,-3.599800001,
1049,diflunisal,O=C(O)c1cc(ccc1O)c2ccc(F)cc2F,water,7.6913E-05,2951,-4.114,
1287,digoxin,O=C\1OC/C(=C/1)[C@H]2CC[C@@]8(O)[C@]2(C)[C@H](O)C[C@H]7[C@H]8CC[C@H]6[C@]7(C)CC[C@H](O[C@@H]5O[C@H](C)[C@@H](O[C@@H]4O[C@@H]([C@@H](O[C@@H]3O[C@@H]([C@@H](O)[C@@H](O)C3)C)[C@@H](O)C4)C)[C@@H](O)C5)C6,water,6.91831E-05,2006532,-4.160000001,
1287,digoxin,O=C\1OC/C(=C/1)[C@H]2CC[C@@]8(O)[C@]2(C)[C@H](O)C[C@H]7[C@H]8CC[C@H]6[C@]7(C)CC[C@H](O[C@@H]5O[C@H](C)[C@@H](O[C@@H]4O[C@@H]([C@@H](O[C@@H]3O[C@@H]([C@@H](O)[C@@H](O)C3)C)[C@@H](O)C4)C)[C@@H](O)C5)C6,water,8.31764E-05,2006532,-4.080000001,
1287,"diheptyl benzene-1,2-dicarboxylate",c1(c(cccc1)C(=O)OCCCCCCC)C(=O)OCCCCCCC,water,2.761E-09,18194,-8.558933593,
1325,diheptyl phthalate,CCCCCCCOC(=O)C1=CC=CC=C1C(=O)OCCCCCCC,water,5.49541E-08,18194,-7.260000003,
1287,dihexyl decanedioate,C(=O)(CCCCCCCCC(=O)OCCCCCC)OCCCCCC,water,2.69774E-05,68083,-4.569000005,
1287,dihexyl phthalate,O=C(OCCCCCC)c1ccccc1C(=O)OCCCCCC,water,1.55597E-06,6528,-5.807999897,
1287,dihexyl phthalate,O=C(OCCCCCC)c1ccccc1C(=O)OCCCCCC,water,7.24436E-07,6528,-6.139999976,
1325,dihexyl phthalate,CCCCCCOC(=O)C1=CC=CC=C1C(=O)OCCCCCC,water,4.7863E-07,6528,-6.32,
1287,Diiodomethane,ICI,water,0.004570882,6106,-2.34,
1287,diisobutyl phthalate,O=C(OCC(C)C)c1ccccc1C(=O)OCC(C)C,water,1.83231E-05,6524,-4.737000005,
1287,diisobutyl phthalate,O=C(OCC(C)C)c1ccccc1C(=O)OCC(C)C,water,2.18776E-05,6524,-4.660000005,
1287,diisooctyl phthalate,O(CCCCCC(C)C)C(=O)c1c(cccc1)C(=O)OCCCCCC(C)C,water,2.29087E-07,31280,-6.639999555,
1287,diisopropyl ether,O(C(C)C)C(C)C,water,0.079432823,7626,-1.1,