Experiment Number (900 series refer to external references),solute,solute SMILES,solvent,concentration (M),csid,solubility,
1287,3-(trifluoromethyl)acridin-9-amine,c31c(nc2c(c1N)cccc2)cc(cc3)C(F)(F)F,water,0.006698846,24581659,-2.174,
1287,3-(Trifluoromethyl)aniline,FC(F)(F)c1cc(ccc1)N,water,0.033884416,7097,-1.47,
1287,3-[(4-nitrophenyl)carbamoylamino]propanoic acid,c1(ccc(cc1)NC(=O)NCCC(=O)O)[N+](=O)[O-],water,0.001981527,8474,-2.703,
1287,3-[(E)-(4-Hydroxyphenyl)diazenyl]benzoic acid,c1cc(cc(c1)/N=N/c2ccc(cc2)O)C(=O)O,water,0.000141906,28295178,-3.848000001,
1287,"3-[[2-[2-(3,4-dimethoxyphenyl)ethylamino]-2-oxoethyl]amino]-N-methylbenzamide",c1(c(cc(cc1)CCNC(=O)CNc2cc(ccc2)C(=O)NC)OC)OC,water,0.01428894,59294,-1.845,
1287,"3-[[2-[2-(3,4-dimethoxyphenyl)ethylamino]-2-oxoethyl]amino]benzamide",c1(c(ccc(c1)CCNC(=O)CNc2cc(ccc2)C(=O)N)OC)OC,water,0.00206063,137920,-2.686,
1287,"3-[4-(5-tert-butyl-2-oxo-1,3,4-oxadiazol-3-yl)-3-chlorophenyl]-1,1-dimethylurea",Clc1c(ccc(c1)NC(=O)N(C)C)N2N=C(OC2=O)C(C)(C)C,water,4.67735E-05,82721,-4.330000001,
1287,"3-Amino-2,5-dichlorobenzoic acid",Clc1c(cc(cc1C(=O)O)Cl)N,water,0.003388442,8309,-2.47,
1287,3-amino-5-sulfobenzoic acid,c1(cc(cc(c1)N)C(=O)O)S(=O)(=O)O,water,0.114287833,2948305,-0.942,
1287,"3-amino-6,9-dimethylpyrido[2,3-b][1,5]benzoxazepin-5-one",N3(c1c(cc(cc1)C)Oc2ncc(cc2C3=O)N)C,water,0.000912011,399772,-3.04,
1287,3-Bromo-4-hydroxybenzaldehyde,C(=O)c1cc(c(cc1)O)Br,water,0.006606934,68785,-2.18,
1287,3-bromoprop-1-ene,BrCC=C,water,0.031622777,7553,-1.5,
1287,3-bromotoluene,Cc1cc(Br)ccc1,water,0.000301995,13875392,-3.52,
1287,"3-chloro-2,6-dimethoxyphenol",c1(c(c(ccc1Cl)OC)O)OC,water,0.027415742,24591409,-1.562,
1287,3-chloro-4-(chloromethyl)-1-[3-(trifluoromethyl)phenyl]pyrrolidin-2-one,FC(F)(F)c1cc(ccc1)N2CC(C(C2=O)Cl)CCl,water,8.91251E-05,82780,-4.049999999,
1287,3-chloro-6-diethoxyphosphinothioyloxy-4-methylchromen-2-one,ClC2=C(c1c(ccc(c1)OP(=S)(OCC)OCC)OC2=O)C,water,4.16869E-06,10442393,-5.379999983,
1287,3-chloro-7-diethoxyphosphinothioyloxy-4-methylchromen-2-one,ClC2=C(c1c(cc(cc1)OP(=S)(OCC)OCC)OC2=O)C,water,4.16869E-06,2768,-5.379999983,
1287,3-chloro-7-diethoxyphosphinothioyloxy-4-methylchromen-2-one,c21c(cc(cc1)OP(=S)(OCC)OCC)OC(=O)C(=C2C)Cl,water,5.79429E-07,2768,-6.236999772,
1287,3-chloroacridin-9-amine,c21c(c3c(nc1cc(cc2)Cl)cccc3)N,water,0.018836491,17815,-1.725,
1287,3-Chloroaniline,Clc1cc(ccc1)N,water,0.042657952,13869451,-1.37,
1287,3-chloroanisole,COc1cc(Cl)ccc1,water,0.001659587,13875324,-2.78,
1033,3-chlorobenzoic acid,O=C(O)c1cc(Cl)ccc1,water,0.002238721,434,-2.65,
1287,3-chlorobenzoic acid,O=C(O)c1cc(Cl)ccc1,water,0.002570396,434,-2.59,
1287,3-chloropentane,ClC(CC)CC,water,0.002344229,11521,-2.63,
1287,3-chloropentane,CCC(CC)Cl,water,0.002344229,11521,-2.63,
1287,3-chlorophenol,Clc1cc(ccc1)O,water,0.199526231,13875432,-0.7,
1287,3-chloroprop-2-ynenitrile,ClCCC#N,water,0.512861384,10498,-0.29,
1287,3-dimethylaminobenzenesulfonic acid,S(=O)(=O)(c1cc(ccc1)N(C)C)O,water,1.986094917,361763,0.298,
1287,3-Ethoxy-4-hydroxybenzaldehyde,C(=O)c1cc(c(cc1)O)OCC,water,0.016982437,8154,-1.77,
1287,3-ethoxy-4-nitro-1-propan-2-yl-5H-pyrrol-2-one,C1(=C(CN(C1=O)C(C)C)[N+](=O)[O-])OCC,water,4.66659E-05,14768415,-4.331,
1287,3-ethyl-3-pentanol,OC(CC)(CC)CC,water,0.141253754,11210,-0.85,
1287,3-ethyl-3-pentanol,CCC(CC)(O)CC,water,0.141253754,11210,-0.85,
1287,3-ethyl-6-nitro-3H-2-benzofuran-1-one,c21c(ccc(c1)[N+](=O)[O-])C(OC2=O)CC,water,0.002818383,10469278,-2.55,
1287,3-Fluoro-9-acridinamine,c1ccc2c(c1)c(c3ccc(cc3n2)F)N,water,0.007550922,28295102,-2.122,
1287,3-Fluoro-N-hydroxy-N-(2-methylphenyl)benzamide,Cc1ccccc1N(C(=O)c2cccc(c2)F)O,water,0.00293765,28295123,-2.532,
1287,3-Fluoro-N-hydroxy-N-phenylbenzamide,c1ccc(cc1)N(C(=O)c2cccc(c2)F)O,water,0.002488857,28295124,-2.604,
1287,3-heptanol,OC(CCCC)CC,water,0.033884416,11036,-1.47,
1287,3-heptanol,CCC(CCCC)O,water,0.033884416,11036,-1.47,
1287,3-hexanol,OC(CCC)CC,water,0.158489319,11678,-0.8,
1287,3-Hexanone,O=C(CCC)CC,water,0.147910839,11025,-0.83,
1287,3-hydroxy-2-methyl-1-(4-methylphenyl)pyridin-4-one,N1(C(=C(C(=O)C=C1)O)C)c2ccc(cc2)C,water,0.000599791,10438862,-3.222,
1287,3-hydroxy-2-methyl-1-phenylpyridin-4-one,N1(C(=C(C(=O)C=C1)O)C)c2ccccc2,water,0.009397233,8573354,-2.027,
1287,3-hydroxy-3-(phenylcarbamoyl)pentanedioic acid,C(C(=O)Nc1ccccc1)(CC(=O)O)(CC(=O)O)O,water,0.328095293,10468830,-0.484,
1287,3-hydroxy-5-(5-oxo-1-cyclopentenyl)pentanoic acid,C1(=CCCC1=O)CCC(CC(=O)O)O,water,0.39536662,7991318,-0.403,
1287,3-hydroxy-5-methylisoxazole,n1oc(cc1O)C,water,0.851138038,23167,-0.07,
1287,3-hydroxyimino-2-nitroindan-1-one,C2(C(=NO)c1c(cccc1)C2=O)[N+](=O)[O-],water,0.002079697,4920457,-2.682,
1287,3-hydroxypropyl 2-(6-methoxynaphthalen-2-yl)propanoate,c21c(ccc(c1)C(C(=O)OCCCO)C)cc(cc2)OC,water,0.000402717,8261046,-3.395,
1287,3-hydroxypyridine,n1cc(ccc1)O,water,0.34673685,7683,-0.46,
1287,3-hydroxytetrahydrofuran,O1CC(CC1)O,water,11.22018454,9566,1.05,
1287,3-Iodobenzoic acid,Ic1cc(ccc1)C(=O)O,water,0.000537032,11563,-3.27,
1287,3-Iodopropanoic acid,ICCC(=O)O,water,0.371535229,8524,-0.43,
1287,3-mentanol,C1(CCCC(C1)C)(C(C)C)O,water,0.575439937,27030979,-0.24,
1287,3-methoxy-1-benzofuran-2-carboxylic acid,c21c(c(oc1cccc2)C(=O)O)OC,water,0.001306171,10469310,-2.884,
1287,3-methyl cholanthrene,c32cc1ccc(c5c1c(c2ccc4ccccc34)CC5)C,water,1.2023E-08,1611,-7.919987153,
1287,3-methyl cholanthrene,c32cc1ccc(c5c1c(c2ccc4ccccc34)CC5)C,water,1.0965E-08,1611,-7.959991364,
1287,"3-methyl-1-benzothiophene 1,1-dioxide",s1(c2c(c(c1)C)cccc2)(=O)=O,water,0.002162719,122350,-2.665,
1287,3-methyl-2-butanol,OC(C(C)C)C,water,0.630957344,11239,-0.2,
1287,3-methyl-2-butanol,CC(C(C)C)O,water,0.630957344,11239,-0.2,
1287,3-methyl-2-butanone,O=C(C(C)C)C,water,0.758577575,10777,-0.12,
1287,3-methyl-2-heptanol,OC(C(CCCC)C)C,water,0.019054607,32916,-1.72,
1287,3-methyl-2-heptanol,CC(C(CCCC)C)O,water,0.019054607,32916,-1.72,
1287,3-methyl-2-pentanol,OC(C(CC)C)C,water,0.190546072,10787,-0.72,
1287,3-methyl-2-pentanol,CC(C(CC)C)O,water,0.190546072,10787,-0.72,
1287,3-methyl-2-pentanol,OCCC(CC)C,water,0.190546072,11024,-0.72,
1287,3-methyl-2-pentanone,O=C(C(CC)C)C,water,0.213796209,10788,-0.67,
1287,3-methyl-3-heptanol,OC(CCCC)(CC)C,water,0.025118864,11218,-1.6,
1287,3-methyl-3-heptanol,CCC(CCCC)(O)C,water,0.025118864,11218,-1.6,
1287,3-methyl-3-hexanol,OC(CCC)(CC)C,water,0.1,11216,-1,
1287,3-methyl-3-hexanol,CCC(CCC)(O)C,water,0.1,11216,-1,
1287,3-methyl-3-pentanol,OC(CC)(CC)C,water,0.416869383,6248,-0.38,
1287,3-methyl-3-pentanol,CCC(CC)(O)C,water,0.416869383,6248,-0.38,
1287,"3-methyl-3,4-dihydro-1H-1,4-benzodiazepine-2,5-dione",c21c(cccc1)NC(=O)C(NC2=O)C,water,0.00419759,3436217,-2.377,
1287,3-methyl-6-nitro-3H-2-benzofuran-1-one,c21c(ccc(c1)[N+](=O)[O-])C(OC2=O)C,water,0.002421029,427512,-2.616,
1287,3-methylacetanilide,N(c1cc(ccc1)C)C(=O)C,water,0.008128305,11332993,-2.09,
1287,3-methylaniline,Nc1cc(ccc1)C,water,0.141253754,13860692,-0.85,
1035,3-methylbenzoic acid,O=C(O)c1cc(ccc1)C,water,0.00724436,7140,-2.14,
1287,3-methylbenzoic acid,O=C(O)c1cc(ccc1)C,water,0.00724436,7140,-2.14,
1287,3-Methylbut-1-ene,C(C)(C)C=C,water,0.001862087,10765,-2.73,
1287,3-Methylbutyl 6-[hydroxy(4-quinolinyl)methyl]quinuclidine-3-carboxylate,CC(C)CCOC(=O)C1CN2CCC1CC2C(c3ccnc4c3cccc4)O,water,0.038547836,28295062,-1.414,
1287,3-methylcyclohexanone,O=C1CC(CCC1)C,water,0.013489629,11079,-1.87,
1287,3-methylheptane,C(CCCC)(CC)C,water,6.91831E-06,11035,-5.159999982,
1287,3-methylindole,[nH]1c2c(c(c1)C)cccc2,water,0.003801894,6480,-2.42,
1287,3-methylpentane,CC(CC)CC,water,0.00020893,7010,-3.68,
1287,3-methylthiophene,s1cc(cc1)C,water,0.004073803,21111820,-2.39,
1287,3-nitroaniline,[N+](=O)([O-])c1cc(ccc1)N,water,0.006456542,7145,-2.19,
1032,3-nitrobenzoic acid,O=[N+]([O-])c1cc(C(=O)O)ccc1,water,0.020892961,8183,-1.68,
1287,3-nitrobenzoic acid,O=[N+]([O-])c1cc(C(=O)O)ccc1,water,0.020892961,8183,-1.68,
1287,3-nitrobenzoic acid,O=[N+]([O-])c1cc(C(=O)O)ccc1,water,0.015381546,8183,-1.813,
1287,3-nitrooxybutan-2-yl nitrate,C(C(O[N+](=O)[O-])C)(O[N+](=O)[O-])C,water,0.012941958,83984,-1.888,
1287,3-nitrophenol,[N+](=O)([O-])c1cc(ccc1)O,water,0.097723722,10664,-1.01,
1244,3-nitrophthalic acid,O=[N+]([O-])c1cccc(c1C(=O)O)C(=O)O,water,0.098228616,62265,-1.007761973,
1287,3-nitrotoluene,[N+](=O)([O-])c1cc(ccc1)C,water,0.003630781,21106146,-2.44,
1287,3-nitrotoluene,c1(cc(ccc1)[N+](=O)[O-])C,water,0.003467369,21106146,-2.46,
1287,3-O-Octanoylhexopyranose,CCCCCCCC(=O)OC1C(C(OC(C1O)O)CO)O,water,0.002322737,28295127,-2.634,
1287,3-octanol,OC(CCCCC)CC,water,0.010471285,11043,-1.98,
1287,3-octanoyloxymethylphenytoin,N1C(C(=O)N(C1=O)COC(=O)CCCCCCC)(c2ccccc2)c3ccccc3,water,3.01995E-07,8222608,-6.520000247,
1287,"3-octoxypropane-1,2-diol",C(COCCCCCCCC)(CO)O,water,0.011994993,100455,-1.921,
1287,3-Oxoandrost-4-en-17-yl 3-hydroxy-2-(hydroxymethyl)propanoate,CC12CCC3C(C1CCC2OC(=O)C(CO)CO)CCC4=CC(=O)CCC34C,water,5.63638E-05,28295192,-4.248999997,
1287,3-pentanol,OC(CC)CC,water,0.575439937,10947,-0.24,
1287,3-pentanone,O=C(CC)CC,water,0.52480746,7016,-0.28,
1287,3-pentenenitrile,N#CCC=CC,water,0.10964782,4482225,-0.96,
1287,3-phenylpropanol,OCCCc1ccccc1,water,0.041686938,13871718,-1.38,
1287,"3-propyl-2,4-pentadione",O=C(C(CCC)C(=O)C)C,water,0.131825674,66402,-0.88,
1287,3-pyridinemethanol,n1cc(ccc1)CO,water,9.120108394,7229,0.96,
1287,3-S-Octyl-3-thio-β-D-glucopyranose,C1(C(C(OC(C1O)O)CO)O)SCCCCCCCC,water,0.00121899,8578468,-2.914,
1287,3-sulfamoylbenzamide,S(=O)(=O)(c1cc(ccc1)C(=O)N)N,water,0.00699842,10437894,-2.155,
1287,"3-tert-butyl-5-chloro-6-methyl-1H-pyrimidine-2,4-dione",ClC1=C(NC(=O)N(C1=O)C(C)(C)C)C,water,0.003311311,20830,-2.48,
1287,"3,3-Dichloro-N-(3-chloro-1,4-dioxo-1,4-dihydro-2-naphthalenyl)propanamide",c1ccc2c(c1)C(=O)C(=C(C2=O)Cl)NC(=O)CC(Cl)Cl,water,9.33254E-06,28295212,-5.03,
1287,"3,3-Diethyl-1-(hydroxymethyl)-2,6-piperidinedione",CCC1(CCC(=O)N(C1=O)CO)CC,water,0.000110408,28295183,-3.957,
1287,"3,3-diethyl-6-nitro-2-benzofuran-1-one",c21c(cc(cc1)[N+](=O)[O-])C(=O)OC2(CC)CC,water,0.0002208,11634955,-3.656000001,
1287,"3,3-diethylpiperidine-2,6-dione",C1(C(=O)NC(=O)CC1)(CC)CC,water,2.95121E-05,173004,-4.530000004,
1287,"3,3-dimethyl-1-butanol",OCCC(C)(C)C,water,0.316227766,11732,-0.5,
1287,"3,3-dimethyl-1-butanol",C(CC(C)(C)C)O,water,0.316227766,11732,-0.5,
1287,"3,3-dimethyl-2-butanol",OC(C(C)(C)C)C,water,0.239883292,9650,-0.62,
1287,"3,3-dimethyl-2-butanol",CC(C(C)(C)C)O,water,0.239883292,9650,-0.62,
1287,"3,3-dimethyl-2-butanone",O=C(C(C)(C)C)C,water,0.190546072,6176,-0.72,
1287,"3,3-dimethyl-6-{[(4-methylphenoxy)acetyl]amino}-7-oxo-4-thia-1-azabicyclo[3.2.0]heptane-2-carboxylic acid",N31C(C(C1=O)NC(=O)COc2ccc(cc2)C)SC(C3C(=O)O)(C)C,water,0.000701455,10468541,-3.154,
1287,"3,3-dimethyl-6-nitro-2-benzofuran-1-one",C2(c1c(cc(cc1)[N+](=O)[O-])C(=O)O2)(C)C,water,0.000887156,10469277,-3.052,
1287,"3,3-dimethyl-7-oxo-6-[(2-phenylacetyl)amino]-4-thia-1-azabicyclo[3.2.0]heptane-2-carboxylic acid",N31C(C(C1=O)NC(=O)Cc2ccccc2)SC(C3C(=O)O)(C)C,water,0.023713737,2259,-1.625,
1287,"3,3-dimethyl-7-oxo-6-[[2-(phenoxy)acetyl]amino]-4-thia-1-azabicyclo[3.2.0]heptane-2-carboxylic acid",N21C(C(SC1C(C2=O)NC(=O)COc3ccccc3)(C)C)C(=O)O,water,0.001545254,4569,-2.811,
1287,"3,3-dimethylpentane",C(CC)(CC)(C)C,water,5.88844E-05,10755,-4.229999997,
1287,"3,3,6,6-Tetraethyl-2,5-piperazinedione",CCC1(C(=O)NC(C(=O)N1)(CC)CC)CC,water,0.004864072,28295112,-2.313,
1287,"3,3'-dichlorobiphenyl",Clc2cc(c1cc(Cl)ccc1)ccc2,water,1.58489E-06,15473,-5.800000053,
1287,"3,3',4,4'-tetrachlorobiphenyl",c1(cc(c(cc1)Cl)Cl)-c2cc(c(cc2)Cl)Cl,water,2.951E-09,33281,-8.530030791,
1287,"3,3',4,4'-tetrachlorodiphenyl ether",O(c1cc(c(cc1)Cl)Cl)c2cc(c(cc2)Cl)Cl,water,1.04713E-07,38189,-6.979999398,
1287,"3,3',5,5'-tetrachlorobiphenyl",c1(cc(cc(c1)Cl)Cl)-c2cc(cc(c2)Cl)Cl,water,2.884E-09,33456,-8.540004744,
1287,"3,4-Dichloroaniline",Clc1c(ccc(c1)N)Cl,water,0.00057544,13860720,-3.24,
1287,"3,4-dichlorobiphenyl",Clc2ccc(c1ccccc1)cc2Cl,water,4.0738E-07,17099,-6.390000296,
1287,"3,4-dichloronitrobenzene",[N+](=O)([O-])c1cc(c(cc1)Cl)Cl,water,0.000630957,21106095,-3.2,
1287,"3,4-Dichlorophenol",Clc1c(ccc(c1)O)Cl,water,0.056234133,6988,-1.25,
1287,"3,4-Dideoxy-2,5-di-S-ethyl-2,5-dithiohexaric acid",CCSC(CCC(C(=O)O)SCC)C(=O)O,water,0.043954162,28295061,-1.357,
1287,"3,4-Dideoxy-2,5-di-S-methyl-2,5-dithiohexaric acid",CSC(CCC(C(=O)O)SC)C(=O)O,water,0.001285287,28295136,-2.891,
1287,"3,4-Dihydro-1H-1,4-benzodiazepine-2,5-dione",c21c(cccc1)NC(=O)CNC2=O,water,0.001399587,522131,-2.854,
1287,"3,4-dihydroxy-5-(1,2,3-trihydroxypropyl)oxolan-2-one",C1(C(C(C(=O)O1)O)O)C(C(CO)O)O,water,2.471724145,71275,0.393,
1309,"3,4-dimethoxybenzoic acid",COc1c(cc(cc1)C(=O)O)OC,water,0.003198895,6854,-2.495000001,
1287,"3,4-dimethylpyridine",n1cc(c(cc1)C)C,water,2.290867653,10937,0.36,
1287,"3,4-xylenol",Oc1cc(c(cc1)C)C,water,0.038904514,13839105,-1.41,
1287,"3,4,4'-trichlorobiphenyl",c1(cc(c(cc1)Cl)Cl)-c2ccc(cc2)Cl,water,8.7096E-08,34873,-7.06000179,
1287,"3,4,5-trichloro-2-methoxyphenol",c1(c(c(c(cc1O)Cl)Cl)Cl)OC,water,0.001339677,38405,-2.873,
1287,"3,4,5-Trichloro-2,6-dimethoxyphenol",c1(c(c(c(c(c1Cl)Cl)Cl)OC)O)OC,water,0.00038815,16411,-3.411,
1287,"3,4,5-trichlorodiphenyl ether",O(c1cc(c(c(c1)Cl)Cl)Cl)c2ccccc2,water,1.69824E-07,10298161,-6.770000934,
1287,"3,4,5-trichloroveratrole",Clc1cc(OC)c(OC)c(Cl)c1Cl,water,4.2658E-05,26090,-4.369999999,
1287,"3,4,5,6-tetrachlorobenzene-1,2-diol",c1(c(c(c(c(c1Cl)O)O)Cl)Cl)Cl,water,0.000284446,13880,-3.546,
1287,"3,4,5,6-tetrachloroveratrole",Clc1c(OC)c(OC)c(Cl)c(Cl)c1Cl,water,5.76767E-06,13088,-5.238999972,
1287,"3,4,5,6-tetrachloroveratrole",Clc1c(OC)c(OC)c(Cl)c(Cl)c1Cl,water,5.7544E-06,13088,-5.240000028,
1287,"3,5-Dibromo-4-hydroxybenzonitrile",Brc1c(c(cc(c1)C#N)Br)O,water,0.000467735,14775,-3.33,
1287,"3,5-Dichloro-2,6-dimethoxyphenol",c1(c(c(c(cc1Cl)Cl)OC)O)OC,water,0.001093956,84366,-2.961,
1287,"3,5-Dichlorophenol",Clc1cc(cc(c1)O)Cl,water,0.045708819,11083,-1.34,
1287,"3,5-dimethylphenol",Oc1cc(cc(c1)C)C,water,0.039810717,13839110,-1.4,
1287,"3,5-dimethylpyridine",n1cc(cc(c1)C)C,water,2.398832919,11077,0.38,
1034,"3,5-dinitrobenzoic acid",O=[N+]([O-])c1cc(cc([N+]([O-])=O)c1)C(=O)O,water,0.003828247,7155,-2.417,
1287,"3,6-Diethyl-3,6-dimethyl-2,5-piperazinedione",CCC1(C(=O)NC(C(=O)N1)(C)CC)C,water,0.012105981,28295090,-1.917,
1287,"3,9-di(propan-2-yl)-2,4,8,10-tetraoxaspiro[5.5]undecane",C21(COC(OC1)C(C)C)COC(OC2)C(C)C,water,0.00076913,9486084,-3.114,
1287,"3'-butoxy-7-chloro-4,6-dimethoxy-5'-methylspiro[1-benzofuran-2,4'-cyclohex-2-ene]-1',3-dione",C32(C(=O)c1c(c(c(cc1OC)OC)Cl)O2)C(=CC(=O)CC3C)OCCCC,water,1.99986E-05,10469113,-4.698999993,
1287,"3'-butoxy-7-chloro-4,6-dimethoxy-5'-methylspiro[1-benzofuran-2,6'-cyclohex-2-ene]-1',3-dione",C32(C(=O)c1c(c(c(cc1OC)OC)Cl)O2)C(CC(=CC3=O)OCCCC)C,water,3.99945E-06,10469114,-5.398000054,
1287,"3',4,6-trimethoxy-5'-methylspiro[1-benzofuran-2,4'-cyclohex-2-ene]-1',3-dione",C32(C(=O)c1c(cc(cc1OC)OC)O2)C(=CC(=O)CC3C)OC,water,0.000199986,85078,-3.699,
1287,33226-54-9,C21(C3C4C(O1)C5C2C6C3C4C5C6)NCc7ccccc7,water,0.000399025,158399,-3.399,
1287,3H-pyrimidin-4-one,N1C=NC=CC1=O,water,3.89045145,19489,0.59,
1287,"4-(1-hydroxy-2-methylaminoethyl)benzene-1,2-diol",c1(cc(c(cc1)O)O)C(CNC)O,water,0.109144034,815,-0.962,
1287,4-(2-hydroxyethyl)-2-nitrophenol,c1(c(ccc(c1)CCO)O)[N+](=O)[O-],water,0.06982324,10469341,-1.156,
1287,4-(2-propylpentanoylamino)butanoic acid,C(C(=O)NCCCC(=O)O)(CCC)CCC,water,0.031988951,8551972,-1.495,
1287,"4-(2,4-dichlorophenoxy)-2-methoxy-1-nitrobenzene",c1(c(ccc(c1)Oc2c(cc(cc2)Cl)Cl)[N+](=O)[O-])OC,water,1.24165E-06,33334,-5.906000108,
1287,"4-(2,4-Dichlorophenoxy)butanoic acid",Clc1c(ccc(c1)Cl)OCCCC(=O)O,water,0.000213796,1444,-3.67,
1287,4-(3-hydroxyphenyl)sulfonylthiophene-2-sulfonamide,S(=O)(=O)(c1cc(sc1)S(=O)(=O)N)c2cc(ccc2)O,water,0.001909853,10440903,-2.719,
1287,"4-(3,14-dihydroxy-10,13-dimethyl-1,2,3,4,5,6,7,8,9,11,12,15,16,17-tetradecahydrocyclopenta[a]phenanthren-17-yl)-5H-furan-2-one",C31(C(C(CC1)C2=CC(=O)OC2)(CCC4C3CCC5C4(CCC(C5)O)C)C)O,water,2.66686E-05,241192,-4.573999994,
1287,4-(4-amino-3-chlorophenyl)-2-chloroaniline,Clc1c(ccc(c1)-c2cc(c(cc2)N)Cl)N,water,1.20226E-05,6803,-4.920000013,
1287,4-(4-chlorophenyl)sulfonylaniline,S(=O)(=O)(c1ccc(cc1)Cl)c2ccc(cc2)N,water,7.46449E-05,200113,-4.126999999,
1287,4-(4-dimethylaminophenyl)diazenylbenzenesulfonic acid,c1(ccc(cc1)N=Nc2ccc(cc2)N(C)C)S(=O)(=O)O,water,0.000137721,10569,-3.861,
1287,4-(4-hydroxy-4-phenylpiperidin-1-yl)-1-phenylbutan-1-one,C2(c1ccccc1)(CCN(CC2)CCCC(=O)c3ccccc3)O,water,0.002079697,10468828,-2.682,
1287,4-(4-hydroxybenzoyl)thiophene-2-sulfonamide,S(=O)(=O)(c1cc(cs1)C(=O)c2ccc(cc2)O)N,water,0.001377209,10440278,-2.861,
1287,4-(4-hydroxyphenyl)sulfonylfuran-2-sulfonamide,S(=O)(=O)(c1cc(oc1)S(=O)(=O)N)c2ccc(cc2)O,water,0.003953666,10440875,-2.403,
1287,4-(4-hydroxyphenyl)sulfonylthiophene-2-sulfonamide,S(=O)(=O)(c1cc(sc1)S(=O)(=O)N)c2ccc(cc2)O,water,0.000939723,10440904,-3.027,
1287,4-(4-methoxybenzoyl)thiophene-2-sulfonamide,c1(cc(cs1)C(=O)c2ccc(cc2)OC)S(=O)(=O)N,water,3.36512E-05,10440853,-4.472999999,
1287,4-(4-methoxyphenyl)sulfonylfuran-2-sulfonamide,S(=O)(=O)(c1cc(oc1)S(=O)(=O)N)c2ccc(cc2)OC,water,0.000946237,10441470,-3.024,
1287,4-(4-methoxyphenyl)sulfonylthiophene-2-sulfonamide,S(=O)(=O)(c1cc(sc1)S(=O)(=O)N)c2ccc(cc2)OC,water,5.99791E-05,10441498,-4.221999997,
1287,4-(4-Methyl-1-piperazinyl)butyl 2-(6-methoxy-2-naphthyl)propanoate,CC(c1ccc2cc(ccc2c1)OC)C(=O)OCCCCN3CCN(CC3)C,water,0.051760683,28295058,-1.286,
1287,4-(4-methylbenzoyl)thiophene-2-sulfonamide,S(=O)(=O)(c1cc(cs1)C(=O)c2ccc(cc2)C)N,water,3.55631E-05,10440273,-4.448999998,
1287,4-(4-methylsulfonylphenyl)-3-phenyl-5H-furan-2-one,C2(=C(c1ccc(cc1)S(=O)(=O)C)COC2=O)c3ccccc3,water,3.01995E-05,4911,-4.520000003,
1287,4-(4-Morpholinyl)butyl 2-(6-methoxy-2-naphthyl)propanoate,CC(c1ccc2cc(ccc2c1)OC)C(=O)OCCCCN3CCOCC3,water,0.000199986,28295177,-3.699,
1287,"4-(5-amino-1,3,4-oxadiazol-2-yl)phenol",c1(ccc(cc1)O)-c2oc(nn2)N,water,0.16943378,21424727,-0.771,
1287,4-(6-methoxynaphthalen-2-yl)butan-2-one,c21c(cc(cc1)OC)ccc(c2)CCC(=O)C,water,0.035075187,4256,-1.455,
1287,"4-(aminomethyl)-9-methoxyfuro[3,2-g]chromen-7-one",c31c(c(c2c(c1CN)cco2)OC)OC(=O)C=C3,water,0.125025903,65657,-0.903,
1287,4-(benzoylamino)pentanoic acid,c1(ccccc1)C(=O)NC(CCC(=O)O)C,water,0.022698649,10469312,-1.644,
1287,4-(butyl-methylamino)diazenylbenzoic acid,c1(ccc(cc1)C(=O)O)N=NN(CCCC)C,water,0.015559656,23109734,-1.808,
1287,4-(Carboxysulfanyl)-3-phenylbutanoic acid,c1ccc(cc1)C(CC(=O)O)CSC(=O)O,water,0.057279603,28295057,-1.242,
1287,4-(diethylamino)-2-(4-methoxy-1-naphthyl)-2-butanol,c21c(ccc(c1cccc2)OC)C(CCN(CC)CC)(O)C,water,0.020701413,24821691,-1.684,
1287,"4-(dimethylamino)-7-chloro-3,6,10,12,12a-pentahydroxy-6-methyl-1,11-dioxo-4,5,6,12a,4a,5a-hexahydronaphthacene-2-carboxamide",Clc1c3c(c(cc1)O)C(=O)C2=C(C4(C(CC2C3(O)C)C(C(=C(C4=O)C(=O)N)O)N(C)C)O)O,water,0.001318257,10466087,-2.88,
1287,4-(Dipropylsulfamoyl)benzoic acid,S(=O)(=O)(c1ccc(cc1)C(=O)O)N(CCC)CCC,water,9.52796E-05,4742,-4.021000002,
1287,4-(ethyl-methylamino)diazenylbenzoic acid,c1(ccc(cc1)C(=O)O)N=NN(CC)C,water,0.376703799,23109714,-0.424,
1287,4-(heptyl-methylamino)diazenylbenzoic acid,c1(ccc(cc1)N=NN(CCCCCCC)C)C(=O)O,water,0.000412098,10441198,-3.385,
1287,4-(hexyl-methylamino)diazenylbenzoic acid,c1(ccc(cc1)N=NN(CCCCCC)C)C(=O)O,water,0.002992265,10440589,-2.524,
1287,4-(hydroxy-phenylphosphoryl)benzoic acid,P(=O)(c1ccc(cc1)C(=O)O)(c2ccccc2)O,water,8.59014E-05,15400940,-4.066000001,
1287,4-(Hydroxyamino)benzenesulfonamide,S(=O)(=O)(c1ccc(cc1)NO)N,water,0.143548943,91475,-0.843,
1287,4-(methoxysulfonyl)benzoic acid,c1(ccc(cc1)C(=O)O)S(=O)(=O)OC,water,0.000897429,18636040,-3.047,
1287,4-(methyl-octylamino)diazenylbenzoic acid,c1(ccc(cc1)C(=O)O)N=NN(CCCCCCCC)C,water,0.000171396,266957,-3.765999999,
1287,4-(methyl-pentylamino)diazenylbenzoic acid,c1(ccc(cc1)N=NN(CCCCC)C)C(=O)O,water,0.004295364,10440029,-2.367,