Experiment Number (900 series refer to external references),solute,solute SMILES,solvent,concentration (M),csid,solubility,
1287,479-23-2,C2Cc5c3c(cc1c4c(ccc1c32)cccc4)ccc5,water,1.4125E-08,9769,-7.850011544,
1287,"4a,7a,7b,11-Tetramethyl-2,3,4,4a,5,5a,6,7,7a,7b,8,8a,10,11,12,12a,13a,14,14a,14b-icosahydro-1H-naphtho[2',3':4,5]indeno[2,1-b]pyrano[2,3-e]pyran-2-ol",CC1CC2C(CC3(C(O2)CC4C3(CCC5C4C=C6CC(CCC6(C5)C)O)C)C)OC1,water,4.7863E-08,28295220,-7.320000084,
1287,"5-(1,2-dihydroxyethyl)-3,4-dihydroxy-5-hydrofuran-2-one",C1(C(=C(C(=O)O1)O)O)C(CO)O,water,0.156675107,10437567,-0.805,
1287,"5-(2-bromoprop-2-enyl)-5-butan-2-yl-1,3-diazinane-2,4,6-trione",BrC(=C)CC1(C(=O)NC(=O)NC1=O)C(CC)C,water,0.002238721,13723,-2.65,
1287,"5-(2-Ethylbutyl)-5-(2-hydroxyethyl)-2-thioxodihydro-4,6(1H,5H)-pyrimidinedione",CCC(CC)CC1(C(=O)NC(=S)NC1=O)CCO,water,0.000719449,28295150,-3.143,
1287,"5-(2-Fluoroethyl)-5,11-dihydro-6H-dibenzo[b,e]azepin-6-one",c1ccc2c(c1)Cc3ccccc3N(C2=O)CCF,water,1.58489E-05,28295208,-4.799999998,
1287,"5-(2-hydroxyethyl)-5-(2-methylpentyl)-2-sulfanylidene-1,3-diazinane-4,6-dione",C1(C(=O)NC(=S)NC1=O)(CC(CCC)C)CCO,water,0.000822243,2702708,-3.085,
1287,"5-(2-hydroxyethyl)-5-(3-methylbutyl)-2-sulfanylidene-1,3-diazinane-4,6-dione",C1(C(=O)NC(=S)NC1=O)(CCC(C)C)CCO,water,0.00277332,2671788,-2.557,
1287,"5-(2-Hydroxyethyl)-5-isobutyl-2-thioxodihydro-4,6(1H,5H)-pyrimidinedione",CC(C)CC1(C(=O)NC(=S)NC1=O)CCO,water,0.002387811,28295126,-2.622,
1287,"5-(2-Hydroxyethyl)-5-pentyl-2-thioxodihydro-4,6(1H,5H)-pyrimidinedione",CCCCCC1(C(=O)NC(=S)NC1=O)CCO,water,0.004216965,28295115,-2.375,
1287,"5-(2-hydroxyethyl)-5-propyl-2-sulfanylidene-1,3-diazinane-4,6-dione",C1(C(=O)NC(=S)NC1=O)(CCO)CCC,water,0.024831331,4412963,-1.605,
1287,5-(3-Methyl-2-butenyl)-5-ethylbarbital,N1C(=O)NC(=O)C(C1=O)(CC)CC=C(C)C,water,0.005623413,80129,-2.25,
1287,5-(3-methyl-2-butenyl)-5-isoprbarbital,N1C(=O)NC(=O)C(C1=O)(C(C)C)CC=C(C)C,water,0.002570396,44813,-2.59,
1287,"5-(benzoyl)-2,3-dihydro-1H-pyrrolizine-1-carboxylic acid",n31c(ccc1C(=O)c2ccccc2)C(CC3)C(=O)O,water,0.000550808,3694,-3.259,
1287,"5-(Bicyclo[3.2.1]oct-2-en-2-yl)-5-ethyl-2,4,6(1H,3H,5H)-pyrimidinetrione",CCC1(C(=O)NC(=O)NC1=O)C2=CCC3CCC2C3,water,0.001995262,28295130,-2.7,
1287,"5-(Carbamoylamino)-4,5-dihydroxy-2-oxo-4-imidazolidinecarboxylic acid",C1(=O)NC(C(N1)(NC(=O)N)O)(C(=O)O)O,water,0.429536427,28295038,-0.367,
1287,"5-(ethylaminomethyl)thieno[3,2-d]furan-2-sulfonamide",S(=O)(=O)(c1oc2c(c1)cc(s2)CNCC)N,water,0.090991327,10439250,-1.041,
1287,5-(phenylazo)salicylic acid,c1(c(ccc(c1)N=Nc2ccccc2)O)C(=O)O,water,0.00088308,10468672,-3.054,
1287,"5-[(2-ethoxyethylamino)methyl]thieno[3,2-d]furan-2-sulfonamide",S(=O)(=O)(c1oc2c(c1)cc(s2)CNCCOCC)N,water,0.119674053,10440881,-0.922,
1287,"5-[(2-methylpropylamino)methyl]thieno[3,2-d]furan-2-sulfonamide",S(=O)(=O)(c1oc2c(c1)cc(s2)CNCC(C)C)N,water,0.047097733,10440298,-1.327,
1287,"5-[(2E)-2-buten-1-yl]-1,5-dimethyl-2,4,6(1H,3H,5H)-pyrimidinetrione",C1(C(=O)N(C(=O)NC1=O)C)(CC=CC)C,water,0.028510183,10469231,-1.545,
1287,"5-[(4-methoxyphenyl)methyl]-3-methylimidazolidine-2,4-dione",C1(C(=O)N(C(=O)N1)C)Cc2ccc(cc2)OC,water,0.12793813,10469252,-0.893,
1287,"5-[(pyridin-2-ylmethylamino)methyl]thieno[3,2-d]furan-2-sulfonamide",S(=O)(=O)(c1oc2c(c1)cc(s2)CNCc3ncccc3)N,water,0.046665938,10441930,-1.331,
1287,"5-[2-(2-aminopurin-9-yl)ethyl]-1,3-dioxan-2-one",c21n(cnc1cnc(n2)N)CCC3COC(=O)OC3,water,0.03758374,8786929,-1.425,
1287,"5-Acetyl-6-methyl-3,4-pyridinedicarboxylic acid",Cc1c(c(c(cn1)C(=O)O)C(=O)O)C(=O)C,water,0.045185594,28295060,-1.345,
1287,5-allyl-5-ethylbarbital,N1C(=O)NC(=O)C(C1=O)(CC)CC=C,water,0.024547089,44152,-1.61,
1287,5-allyl-5-methylbarbital,N1C(=O)NC(=O)C(C1=O)(CC=C)C,water,0.069183097,10437814,-1.16,
1287,"5-Amino-1-phenyl-1,2-dihydro-3H-1,2,4-triazol-3-one",c1ccc(cc1)n2c(nc(=O)[nH]2)N,water,0.020137242,28295081,-1.696,
1287,"5-amino-2-phenyl-1,2-dihydro-3H-1,2,4-triazol-3-one",N2(c1ccccc1)C(=O)N=C(N2)N,water,0.003404082,10468973,-2.468,
1287,5-amino-4-bromo-2-phenylpyridazin-3-one,BrC1=C(C=NN(C1=O)c2ccccc2)N,water,0.000758578,68913,-3.12,
1287,5-amino-4-chloro-2-phenylpyridazin-3-one,ClC1=C(C=NN(C1=O)c2ccccc2)N,water,0.001348963,14790,-2.87,
1287,5-amino-4-chloro-2-phenylpyridazin-3-one,N1(C(=O)C(=C(C=N1)N)Cl)c2ccccc2,water,0.001803018,14790,-2.744,
1287,5-Amino-6-quinolinesulfonic acid,c1cc2c(ccc(c2N)S(=O)(=O)O)nc1,water,0.003162278,28295122,-2.5,
1287,"5-amino-7-(3-amino-2-methylazetidin-1-yl)-1-cyclopropyl-6,8-difluoro-4-oxoquinoline-3-carboxylic acid",c31c(c(c(c(c1F)N2C(C(C2)N)C)F)N)C(=O)C(=CN3C4CC4)C(=O)O,water,0.000103753,16218966,-3.983999998,
1287,"5-amino-7-(3-amino-3-methylazetidin-1-yl)-1-cyclopropyl-6,8-difluoro-4-oxoquinoline-3-carboxylic acid",c31c(c(c(c(c1F)N2CC(C2)(N)C)F)N)C(=O)C(=CN3C4CC4)C(=O)O,water,4.20727E-05,9900984,-4.375999998,
1287,5-aminoquinoline-8-sulfonic acid,c21c(ccc(c1cccn2)N)S(=O)(=O)O,water,0.00196336,24224679,-2.707,
1049,5-aminosalicylic acid,O=C(O)c1cc(ccc1O)N,water,0.006606934,3933,-2.18,
1287,"5-bromo-2,4-dihydroxybenzoic acid",Brc1cc(c(O)cc1O)C(=O)O,water,0.002397176,73827,-2.6203,
1287,"5-bromo-3-butan-2-yl-6-methyl-1H-pyrimidine-2,4-dione",BrC1=C(NC(=O)N(C1=O)C(CC)C)C,water,0.003019952,9040,-2.52,
1287,"5-bromo-6-(pyrrolidin-1-ylmethyl)-1H-pyrimidine-2,4-dione",C1(=C(C(=O)NC(=O)N1)Br)CN2CCCC2,water,0.01678804,8036026,-1.775,
1287,"5-butyl-5-(2-hydroxyethyl)-2-sulfanylidene-1,3-diazinane-4,6-dione",C1(C(=O)NC(=S)NC1=O)(CCCC)CCO,water,0.006776415,2274211,-2.169,
1287,"5-butyl-5-prop-2-enyl-1,3-diazinane-2,4,6-trione",C1(C(=O)NC(=O)NC1=O)(CCCC)CC=C,water,0.006729767,44137,-2.172,
1287,"5-Carbamoyl-10,11-dihydro-5H-dibenzo[b,f]azepine-10,11-diyl diacetate",CC(=O)OC1c2ccccc2N(c3ccccc3C1OC(=O)C)C(=O)N,water,0.000282488,28295168,-3.549000001,
1287,"5-CHLORO-2-(2,4-DICHLOROPHENOXY)PHENOL",Clc1c(ccc(c1)Cl)Oc2c(cc(cc2)Cl)O,water,3.46737E-05,5363,-4.460000001,
1287,5-Chloro-2-(5-nitro-2-furyl)-1H-benzimidazole,c1cc2c(cc1Cl)nc([nH]2)c3ccc(o3)[N+](=O)[O-],water,1.51705E-05,28295209,-4.818999991,
1287,5-Chloro-2-[(E)-(4-hydroxyphenyl)diazenyl]benzoic acid,c1cc(ccc1/N=N/c2ccc(cc2C(=O)O)Cl)O,water,0.000139637,28295179,-3.855,
1287,"5-Chloro-2-methyl-2,3,3a,12b-tetrahydro-1H-dibenzo[2,3:6,7]oxepino[4,5-c]pyrrole",C42C(c1c(cccc1)Oc3c2cc(cc3)Cl)CN(C4)C,water,0.007498942,8079624,-2.125,
1287,"5-chloro-6-(pyrrolidin-1-ylmethyl)-1H-pyrimidine-2,4-dione",C1(=C(C(=O)NC(=O)N1)Cl)CN2CCCC2,water,0.02917427,13553738,-1.535,
1287,5-chloro-N-[2-[4-(cyclohexylcarbamoylsulfamoyl)phenyl]ethyl]-2-methoxybenzamide,Clc1cc(c(cc1)OC)C(=O)NCCc2ccc(cc2)S(=O)(=O)NC(=O)NC3CCCCC3,water,8.12831E-06,3368,-5.090000009,
1287,5-decyloxy-2-((hydroxyimino)ethyl)phenol,c1(c(cc(cc1)OCCCCCCCCCC)O)C(=NO)C,water,1.30017E-05,17953718,-4.885999993,
1287,5-decyloxy-2-((hydroxyimino)propyl)phenol,c1(c(cc(cc1)OCCCCCCCCCC)O)C(=NO)CC,water,8.70964E-05,17953623,-4.06,
1287,"5-ethenyl-5-pentan-2-yl-1,3-diazinane-2,4,6-trione",C1(C(=O)NC(=O)NC1=O)(C(CCC)C)C=C,water,0.004405549,65109,-2.356,
1287,"5-ethenyl-5-propan-2-yl-1,3-diazinane-2,4,6-trione",C1(C(=O)NC(=O)NC1=O)(C(C)C)C=C,water,0.019408859,10466222,-1.712,
1287,5-Ethyl-5-(1-isobutenyl)barbituric acid,C1(C(=O)NC(=O)NC1=O)(CC(C)C)C=C,water,0.007585776,44346,-2.12,
1287,"5-ethyl-5-(2-hydroxyethyl)-2-sulfanylidene-1,3-diazinane-4,6-dione",C1(C(=O)NC(=S)NC1=O)(CCO)CC,water,0.033651157,3239067,-1.473,
1287,"5-ethyl-5-(2-oxopropyl)-1,3-diazinane-2,4,6-trione",C1(C(=O)NC(=O)NC1=O)(CC(=O)C)CC,water,0.171395731,10469220,-0.766,
1287,"5-ethyl-5-[(2E)-pent-2-en-2-yl]pyrimidine-2,4,6(1H,3H,5H)-trione",C1(C(=O)NC(=O)NC1=O)(C(=CCC)C)CC,water,0.004864072,4447681,-2.313,
1287,"5-ethyl-5-phenylimidazolidine-2,4-dione",C2(c1ccccc1)(C(=O)NC(=O)N2)CC,water,0.002285599,82605,-2.641,
1287,"5-ethylbenzo[b][1,4]benzoxazepin-6-one",N3(c1c(cccc1)Oc2c(cccc2)C3=O)CC,water,0.00020893,399713,-3.68,
1287,5-ethylhydantoin,N1C(C(=O)NC1=O)CC,water,0.87096359,221924,-0.06,
1287,"5-fluoro-1-(oxolan-2-yl)pyrimidine-2,4-dione",N2(C1OCCC1)C(=O)NC(=O)C(=C2)F,water,0.097498964,5193,-1.011,
1287,"5-fluoro-1-(phenylmethyl)pyrimidine-2,4-dione",N1(C(=O)NC(=O)C(=C1)F)Cc2ccccc2,water,0.002243882,489808,-2.649,
1287,"5-fluoro-1-[(4-methoxyphenyl)methyl]pyrimidine-2,4-dione",N1(C(=O)NC(=O)C(=C1)F)Cc2ccc(cc2)OC,water,0.001774189,2329527,-2.751,
1287,"5-fluoro-1-[(4-methylphenyl)methyl]pyrimidine-2,4-dione",N1(C(=O)NC(=O)C(=C1)F)Cc2ccc(cc2)C,water,0.001205036,10439484,-2.919,
1049,5-fluorocytosine,FC=1\C=N/C(=O)NC=1N,water,0.070307232,3249,-1.153,
1287,5-fluorocytosine,FC=1\C=N/C(=O)NC=1N,water,0.107151931,3249,-0.97,
1049,5-fluorouracil,c1c(c(=O)[nH]c(=O)[nH]1)F,water,0.104712855,3268,-0.98,
1287,5-fluorouracil,c1c(c(=O)[nH]c(=O)[nH]1)F,water,0.085113804,3268,-1.07,
1287,5-hexyloxy-2-((hydroxyimino)ethyl)phenol,c1(c(cc(cc1)OCCCCCC)O)C(=NO)C,water,7.16143E-05,17953712,-4.145,
1287,5-hexyloxy-2-((hydroxyimino)phenylmethyl)phenol,c1(c(cc(cc1)OCCCCCC)O)C(=NO)c2ccccc2,water,0.000338065,17953637,-3.471,
1287,"5-hydroxy-7,7-dioxo-5,6-dihydro-4H-thieno[5,4-b]thiopyran-2-sulfonamide",c21c(cc(s1)S(=O)(=O)N)CC(CS2(=O)=O)O,water,0.028906799,10439288,-1.539,
1287,5-hydroxybenzoic acid,O=C(O)c1cc(O)ccc1,water,0.034324167,7142,-1.4644,
1287,"5-methyl-1-(phenylmethyl)pyrimidine-2,4-dione",N1(C(=O)NC(=O)C(=C1)C)Cc2ccccc2,water,0.005546257,207795,-2.256,
1287,"5-methyl-1-benzothiophene 1,1-dioxide",c21s(ccc1cc(cc2)C)(=O)=O,water,0.002218196,11379426,-2.654,
1287,5-methyl-2-hexanol,OC(CCC(C)C)C,water,0.041686938,11819,-1.38,
1287,5-methyl-2-hexanol,CC(CCC(C)C)O,water,0.041686938,11819,-1.38,
1287,5-methyl-2-hexanone,O=C(CCC(C)C)C,water,0.046773514,7743,-1.33,
1287,5-methyl-2-phenylpyrazol-3-amine,n1(c(cc(n1)C)N)-c2ccccc2,water,0.115345326,63966,-0.938,
1287,5-methyl-2-thiouracil,Sc1nc(c(cn1)C)O,water,0.003548134,628889,-2.45,
1287,5-methyl-5-ethylbarbituric acid,N1C(=O)NC(=O)C(C1=O)(CC)C,water,0.058884366,86394,-1.23,
1287,"5-methyl-5-phenyl-1,3-diazinane-2,4,6-trione",C2(c1ccccc1)(C(=O)NC(=O)NC2=O)C,water,0.003483373,59547,-2.458,
1287,5-methylchrysene,Cc1c3c(c2c(c1)cccc2)ccc4c3cccc4,water,2.5704E-07,18309,-6.589999287,
1287,5-methylcytosine,N1C=C(C(=NC1=O)N)C,water,0.034673685,58551,-1.46,
1287,5-nitro-2-propan-2-yloxyaniline,c1(c(cc(cc1)[N+](=O)[O-])N)OC(C)C,water,0.002202926,37391,-2.657,
1287,5-Nitro-2-propoxyaniline,c1(c(cc(cc1)[N+](=O)[O-])N)OCCC,water,0.000693426,10647,-3.159,
1287,5-nitrobarbituric acid,[N+](=O)([O-])C1C(=O)NC(=O)NC1=O,water,0.005248075,9780,-2.28,
1287,5-nitrooxyhexan-2-yl nitrate,C(CCC(O[N+](=O)[O-])C)(O[N+](=O)[O-])C,water,0.002113489,10438219,-2.675,
1287,5-nitrooxypentan-2-yl nitrate,O(C(CCCO[N+](=O)[O-])C)[N+](=O)[O-],water,0.003655948,10437870,-2.437,
1287,5-nitrooxypentyl nitrate,[N+](=O)(OCCCCCO[N+](=O)[O-])[O-],water,0.006486344,121588,-2.188,
1287,5-nitroquinoline-8-carboxylic acid,c21c(c(ccc1C(=O)O)[N+](=O)[O-])cccn2,water,0.000685488,10469189,-3.164,
1287,5-nitrothiophene-2-carbohydrazide,c1(sc(cc1)[N+](=O)[O-])C(=O)NN,water,0.010690549,4678055,-1.971,
1287,5-nonanone,O=C(CCCC)CCCC,water,0.002570396,9976,-2.59,
1287,5-oxo-3-phenylhexanoic acid,C(c1ccccc1)(CC(=O)O)CC(=O)C,water,0.035974934,2110395,-1.444,
1287,"5-Phenylcyclohexane-1,3-dione",C2(c1ccccc1)CC(=O)CC(=O)C2,water,0.003083188,494648,-2.511,
1287,"5-tert-butyl-3-(2,4-dichloro-5-propan-2-yloxyphenyl)-1,3,4-oxadiazol-2-one",Clc1c(cc(c(c1)Cl)OC(C)C)N2N=C(OC2=O)C(C)(C)C,water,2.04174E-06,27628,-5.689999988,
1287,"5,5-di(ethenyl)-1,3-diazinane-2,4,6-trione",C1(C(=O)NC(=O)NC1=O)(C=C)C=C,water,0.008649679,10466223,-2.063,
1287,"5,5-di[(2E)-2-buten-1-yl]-2,4,6(1H,3H,5H)-pyrimidinetrione",C1(C(=O)NC(=O)NC1=O)(CC=CC)CC=CC,water,0.006353309,4903924,-2.197,
1287,"5,5-Diethyl-1-(hydroxymethyl)-2,4,6(1H,3H,5H)-pyrimidinetrione",CCC1(C(=O)NC(=O)N(C1=O)CO)CC,water,0.000116681,28295181,-3.932999999,
1287,"5,5-diethyl-2-sulfanylidene-1,3-diazinane-4,6-dione",C1(C(=O)NC(=S)NC1=O)(CC)CC,water,0.00474242,580885,-2.324,
1287,"5,5-diethyl-4,6-dioxo-1H-pyrimidin-2-olate",C1(C(=O)NC(=NC1=O)[O-])(CC)CC,water,0.859013522,2737248,-0.066,
1287,"5,5-diisopropylbarbital",N1C(=O)NC(=O)C(C1=O)(C(C)C)C(C)C,water,0.001698244,10438603,-2.77,
1287,"5,5-dimethyl-2-phenyl-3H-imidazol-4-one",C1(=NC(C(=O)N1)(C)C)c2ccccc2,water,0.141579378,498875,-0.849,
1287,"5,5-dimethyl-2,4-hexadione",O=C(C(C)(C)C)CC(=O)C,water,0.023442288,73757,-1.63,
1287,"5,5-dimethyl-3-(phenylmethyl)imidazolidine-2,4-dione",C1(C(=O)N(C(=O)N1)Cc2ccccc2)(C)C,water,0.016032454,125188,-1.795,
1287,"5,5-dimethylbarbituric acid",N1C(=O)NC(=O)C(C1=O)(C)C,water,0.018197009,81718,-1.74,
1287,"5,5-dipropyl-1,3-diazinane-2,4,6-trione",C1(C(=O)NC(=O)NC1=O)(CCC)CCC,water,0.002964831,67738,-2.528,
1287,"5,5'-(1,2-Ethanediyl)di(2-furancarboximidamide)",c1cc(oc1CCc2ccc(o2)C(=N)N)C(=N)N,water,0.094841846,28295052,-1.023,
1287,"5,6-dehydroisoandrosterone acetate",O(C4CCC3(C1C(C2C(CC1)(C(=O)CC2)C)CC=C3C4)C)C(=O)C,water,3.46737E-05,471010,-4.460000001,
1287,"5,6-dihydroxy-5,6-dihydrobenzo[b][1]benzazepine-11-carboxamide",c31c(cccc1)C(C(c2c(cccc2)N3C(=O)N)O)O,water,0.009397233,75667,-2.027,
1287,"5,6-dimethylchrysene",Cc1c3c(c2c(c1C)cccc2)ccc4c3cccc4,water,9.7724E-08,18311,-7.009998765,
1287,"5,6,7,8-Tetrachloroquinoxaline",Clc2c1nccnc1c(c(c2Cl)Cl)Cl,water,3.71535E-06,17951,-5.430000034,
1287,"5,6,7,8-tetrahydro-2-naphthol",Oc1cc2c(cc1)CCCC2,water,0.01023293,13667,-1.99,
1287,"5,8-dihydro-1H-pteridine-2,4,6,7-tetrone",C21=C(C(=O)NC(=O)N1)NC(=O)C(=O)N2,water,8.77001E-05,200337,-4.057000001,
1287,"5,8-dihydro-4,6,7(1H)-pteridinetrione",C21=C(NC(=O)C(=O)N1)N=CNC2=O,water,0.000205589,514852,-3.686999999,
1287,"5,8-dihydroxy-1-methyl-3,4,4a,5,6,7,8,8a-octahydro-1H-naphthalen-2-one",C21C(C(CCC1O)O)CCC(=O)C2C,water,0.504661298,10469283,-0.297,
1287,53664-69-0,c21c3c4c(cc1CCCN2CCC3)C(=CC(=O)O4)C,water,0.000130017,85293,-3.885999999,
1287,6-(2-Oxo-1(2H)-pyridinyl)hexanoic acid,c1ccn(c(=O)c1)CCCCCC(=O)O,water,0.231206479,28295045,-0.636,
1287,6-(carbamoylamino)hexanoic acid,C(=O)(NCCCCCC(=O)O)N,water,0.006934258,405250,-2.159,
1287,6-(Methylsulfanyl)pteridine,CSc1cnc2c(n1)cncn2,water,0.028183829,28295076,-1.55,
1287,6-[Hydroxy(4-quinolinyl)methyl]quinuclidine-3-carboxylic acid,c1ccc2c(c1)c(ccn2)C(C3CC4CCN3CC4C(=O)O)O,water,0.011587774,28295091,-1.936,
1287,6-[Hydroxy(6-methoxy-4-quinolinyl)methyl]quinuclidine-3-carboxylic acid,COc1ccc2c(c1)c(ccn2)C(C3CC4CCN3CC4C(=O)O)O,water,0.009354057,28295094,-2.029,
1287,"6-amino-3-methylfuro[3,2-g]chromen-7-one",c31c(cc2c(c1)C=C(C(=O)O2)N)occ3C,water,8.35603E-06,132012,-5.078000009,
969,6-aminocaproic acid,C(CCC(=O)O)CCN,water,0.106,548,-0.974694135,
1287,6-aminochrysene,Nc3c4c(c1c(c2c(cc1)cccc2)c3)cccc4,water,6.30957E-07,16579,-6.200000237,
1287,"6-aminocyclohexane-1,2,3,4,5-pentol",C1(C(C(C(C(C1O)O)N)O)O)O,water,0.03908409,213890,-1.408,
1287,6-aminonaphthalene-1-sulfonic acid,c2(c1c(cc(cc1)N)ccc2)S(=O)(=O)O,water,0.001790606,59841,-2.747,
1287,6-benzylaminopurine,c21c(ncnc1[nH]cn2)NCc3ccccc3,water,0.000253513,56177,-3.596,
1287,"6-chloro-3-(diethoxyphosphinothioylsulfanylmethyl)-1,3-benzoxazol-2-one",Clc1cc2c(cc1)N(C(=O)O2)CSP(=S)(OCC)OCC,water,5.88844E-06,4629,-5.229999967,
1287,"6-chloro-N-propan-2-yl-1,3,5-triazine-2,4-diamine",c1(nc(nc(n1)N)Cl)NC(C)C,water,0.017060824,21157,-1.768,
1287,"6-chloro-N,N-diethyl-N'-propan-2-yl-1,3,5-triazine-2,4-diamine",Clc1nc(nc(n1)NC(C)C)N(CC)CC,water,0.000162181,15156,-3.789999999,
1287,"6-Chloro-N,N,N'-triethyl-1,3,5-triazine-2,4-diamine",Clc1nc(nc(n1)NCC)N(CC)CC,water,8.70964E-05,15157,-4.06,
1287,"6-Chloro-N,N,N',N'-tetraethyl-1,3,5-triazine-2,4-diamine",Clc1nc(nc(n1)N(CC)CC)N(CC)CC,water,3.89045E-05,10902,-4.410000006,
1287,"6-chloro-N,N'-di(propan-2-yl)-1,3,5-triazine-2,4-diamine",Clc1nc(nc(n1)NC(C)C)NC(C)C,water,3.71535E-05,4768,-4.429999999,
1287,"6-Chloro-N,N'-diethyl-1,3,5-triazine-2,4-diamine",Clc1nc(nc(n1)NCC)NCC,water,2.81838E-05,5027,-4.550000005,
1287,"6-chloro-N'-hydroxy-1,3-dihydrobenzo[de]isoquinoline-2-carboxamidine",c21c3ccc(c1cccc2CN(C3)C(=NO)N)Cl,water,0.010023052,25044143,-1.999,
1287,6-chloropteridine,Clc2nc1c(ncnc1)nc2,water,0.134896288,10468611,-0.87,
1287,6-fluoro-1-(1-fluoro-2-methylpropan-2-yl)-4-oxo-7-piperazin-1-ylquinoline-3-carboxylic acid,c31c(cc(c(c1)N2CCNCC2)F)C(=O)C(=CN3C(CF)(C)C)C(=O)O,water,0.002494595,427870,-2.603,
1287,6-fluoro-2-(5-nitro-2-furyl)-1H-benzimidazole,c1(nc2c([nH]1)ccc(c2)F)-c3oc(cc3)[N+](=O)[O-],water,0.0001,139344,-4,
1287,6-fluoro-4-oxo-7-piperazin-1-yl-1-propylquinoline-3-carboxylic acid,c31c(cc(c(c1)N2CCNCC2)F)C(=O)C(=CN3CCC)C(=O)O,water,0.000271019,15046234,-3.567,
1287,"6-HYDROXY-1,3-BENZOTHIAZOLE-2-SULFONAMIDE",c1(sc2c(n1)ccc(c2)O)S(=O)(=O)N,water,0.003140509,5254586,-2.503,
1287,6-hydroxy-2-(2-methylpropyl)-5-(phenylmethyl)morpholin-3-one,C1(C(OC(C(=O)N1)CC(C)C)O)Cc2ccccc2,water,0.007585776,16088266,-2.12,
1287,"6-hydroxy-4,4-dioxo-6,7-dihydro-5H-thieno[4,5-b]thiopyran-2-sulfonamide",c21c(sc(c1)S(=O)(=O)N)CC(CS2(=O)=O)O,water,0.025763212,10439286,-1.589,
1287,6-hydroxy-5-(phenylmethyl)-2-propan-2-ylmorpholin-3-one,C1(C(=O)NC(C(O1)O)Cc2ccccc2)C(C)C,water,0.005211947,16088302,-2.283,
1287,"6-methoxy-3-methylfuro[3,2-g]chromen-7-one",c31c(cc2c(c1)C=C(C(=O)O2)OC)occ3C,water,0.00001,132013,-5,
1287,"6-methyl-1,4-dihydroquinoxaline-2,3-dione",c21c(ccc(c1)C)NC(=O)C(=O)N2,water,0.000907821,65980,-3.042,
1287,"6-methyl-2,4-heptadione",O=C(CC(C)C)CC(=O)C,water,0.025118864,68831,-1.6,
1287,"6-methyl-4,7(1H,8H)-pteridinedione",C21=C(NC(=O)C(=N1)C)N=CNC2=O,water,0.007014553,10465440,-2.154,
1287,6-METHYLCHRYSENE,Cc3c4c(c1c(c2c(cc1)cccc2)c3)cccc4,water,2.69153E-07,14807,-6.570000775,
1287,6-methylprednisolone,OC4(C1(C(C3C(C(C1)O)C2(C(=CC(=O)C=C2)C(C3)C)C)CC4)C)C(=O)CO,water,0.001023293,115592,-2.99,
1287,6-methylprednisolone,C3=CC(=O)C=C4C(C)CC2C1CCC(C(=O)CO)(O)C1(C)CC(O)C2C43C,water,0.000933254,115592,-3.03,
1287,6-methylprednisolone,C41(C(C3C(C(C1)O)C2(C(=CC(=O)C=C2)C(C3)C)C)CCC4(C(=O)CO)O)C,water,4.27563E-07,115592,-6.368999884,
1287,6-methylpteridine,n2c1ncc(nc1cnc2)C,water,1.148153621,15264716,0.06,
1287,"6-methylpyrido[2,3-b][1,5]benzoxazepin-5-one",N3(c1c(cccc1)Oc2ncccc2C3=O)C,water,0.000213796,399756,-3.67,
1287,6-methyluracil,N1C(=CC(=O)NC1=O)C,water,0.054954087,11780,-1.26,
1287,6-nitro-3H-2-benzofuran-1-one,c21c(ccc(c1)[N+](=O)[O-])COC2=O,water,0.002233572,194210,-2.651,
1287,6-nitrooxyhexan-2-yl nitrate,O(C(CCCCO[N+](=O)[O-])C)[N+](=O)[O-],water,0.001442115,10438217,-2.841,
1287,6-nitrooxyhexyl nitrate,[N+](=O)(OCCCCCCO[N+](=O)[O-])[O-],water,0.001682674,2884069,-2.774,
1287,6-O-(Decylcarbamoyl)hexopyranose,CCCCCCCCCCNC(=O)OCC1C(C(C(C(O1)O)O)O)O,water,0.000275423,28295169,-3.560000001,
1287,6-O-(Nonylcarbamoyl)hexopyranose,CCCCCCCCCNC(=O)OCC1C(C(C(C(O1)O)O)O)O,water,0.001086426,28295141,-2.964,
1287,6-O-(Octylcarbamoyl)hexopyranose,CCCCCCCCNC(=O)OCC1C(C(C(C(O1)O)O)O)O,water,0.004466836,28295114,-2.35,
1287,6-pteridinethiol,Sc1nc2cncnc2nc1,water,0.001949845,10465572,-2.71,
1287,"6-sulfanylidene-7,9-dihydro-3H-purine-2,8-dione",C21=C(C(=S)NC(=O)N1)NC(=O)N2,water,9.22571E-05,2297400,-4.034999999,
1287,"6,7-diethyl-2,4(1H,3H)-pteridinedione",c21c(nc(c(n1)CC)CC)NC(=O)NC2=O,water,0.004130475,10469333,-2.384,
1287,"6,7-diethyl-2(1H)-pteridinone",c21c(nc(c(n1)CC)CC)NC(=O)N=C2,water,0.005445027,10469225,-2.264,
1287,"6,7-diethyl-4(1H)-pteridinone",c21c(nc(c(n1)CC)CC)N=CNC2=O,water,0.012246162,10469305,-1.912,
1287,"6,7-diethylpteridin-2-amine",c21c(nc(c(n1)CC)CC)nc(nc2)N,water,0.000909913,10469420,-3.041,
1287,"6,7-diethylpteridin-4-amine",c21c(nc(c(n1)CC)CC)ncnc2N,water,0.001172195,10469421,-2.931,
1287,"6,7-diethylpteridine",c21c(nc(c(n1)CC)CC)cncn2,water,0.758577575,10469415,-0.12,
1287,"6,7-dihydroxy-1-methyl-3,4-dihydro-2H-isoquinoline-1-carboxylic acid",C2(c1c(cc(c(c1)O)O)CCN2)(C(=O)O)C,water,0.179887092,90538,-0.745,
1287,"6,7-Dimethoxy-1-oxo-1,3-dihydro-2-benzofuran-4-carbonitrile",COc1cc(c2c(c1OC)C(=O)OC2)C#N,water,0.000328095,28295162,-3.484,
1287,"6,7-Dimethoxy-3a,7a-dihydro-2-benzofuran-1(3H)-one",COC1=C(C2C(COC2=O)C=C1)OC,water,0.012589254,28295089,-1.9,