Experiment Number (900 series refer to external references),solute,solute SMILES,solvent,concentration (M),csid,solubility,
1287,"1,1,2,2-tetrachloroethene",C(=C(Cl)Cl)(Cl)Cl,water,0.002884032,13837281,-2.54,
1287,"1,1,2,3,4,4-hexachlorobuta-1,3-diene",Cl/C(Cl)=C(\Cl)C(\Cl)=C(/Cl)Cl,water,1.23027E-05,6635,-4.90999999,
1287,"1,1,2,3,4,4-hexachlorobuta-1,3-diene",Cl/C(Cl)=C(\Cl)C(\Cl)=C(/Cl)Cl,water,1.20226E-05,6635,-4.920000013,
1287,"1,1,2,4,4-pentachlorobuta-1,3-diene",ClC(=C(Cl)C=C(Cl)Cl)Cl,water,5.88844E-05,38011,-4.229999997,
1287,"1,1,3-Trimethylcyclopentane",C1(CC(CC1)C)(C)C,water,3.31131E-05,19413,-4.480000002,
1287,"1,1,3,4,4-pentachloro-1,2-butadiene",C(=C=C(C(Cl)Cl)Cl)(Cl)Cl,water,5.88844E-05,159476,-4.229999997,
1287,"1,1'-Sulfonyldipyrrolidine",C1CCN(C1)S(=O)(=O)N2CCCC2,water,0.3672823,28295039,-0.435,
1287,"1,2-benzenediamine",Nc1c(cccc1)N,water,0.380189396,13837582,-0.42,
1287,"1,2-benzenediol",Oc1c(cccc1)O,water,4.168693835,13837760,0.62,
1287,"1,2-dibromo-3-chloropropane",BrC(CBr)CCl,water,0.004168694,7008,-2.38,
1287,"1,2-dibromobenzene",Brc1c(cccc1)Br,water,0.000316228,13875212,-3.5,
1287,"1,2-dibromobenzene",c1(c(cccc1)Br)Br,water,0.000316228,13875212,-3.5,
1287,"1,2-dibromoethane",BrCCBr,water,0.020892961,7551,-1.68,
1287,"1,2-dibromoethylene",BrC=CBr,water,0.047863009,553502,-1.32,
1287,"1,2-dibromoethylene",C(=CBr)Br,water,0.047863009,553502,-1.32,
1287,"1,2-dibromopropane",C(C(C)Br)Br,water,0.007079458,6305,-2.15,
1287,"1,2-Dichloro-1,1,2,2-tetrafluoroethane",FC(F)(Cl)C(F)(F)Cl,water,0.000758578,13853215,-3.12,
1287,"1,2-dichloro-3-(2,3-dichlorophenyl)benzene",Clc1c(cccc1-c2c(c(ccc2)Cl)Cl)Cl,water,5.2481E-08,34874,-7.279997898,
1287,"1,2-dichlorobenzene",Clc1c(cccc1)Cl,water,0.000891251,13837988,-3.05,
1287,"1,2-dichlorobenzene",c1(c(cccc1)Cl)Cl,water,0.000954993,13837988,-3.02,
1287,"1,2-dichloroethane",ClCCCl,water,0.087096359,13837650,-1.06,
1287,"1,2-dichloroethane",ClCCCl,water,0.083176377,13837650,-1.08,
1287,"1,2-dichloroethylene",ClC=CCl,water,0.050118723,553742,-1.3,
1287,"1,2-dichloroethylene",C(=CCl)Cl,water,0.050118723,553742,-1.3,
1287,"1,2-dichloropropane",ClC(CCl)C,water,0.025118864,6316,-1.6,
1287,"1,2-dichloropropane",C(C(C)Cl)Cl,water,0.025118864,6316,-1.6,
1287,"1,2-diethoxyethane",O(CCOCC)CC,water,0.169824365,13835376,-0.77,
1287,"1,2-diethoxyethane",C(COCC)OCC,water,0.169824365,13835376,-0.77,
1287,"1,2-diethylbenzene",C(C)c1c(cccc1)CC,water,0.000524807,8335,-3.28,
1287,"1,2-diiodoethylene",IC=CI,water,0.00060256,4527007,-3.22,
1287,"1,2-dimethylbenzene",Cc1c(cccc1)C,water,0.001584893,6967,-2.8,
1287,"1,2-dimethylbenzene",c1(c(cccc1)C)C,water,0.001584893,6967,-2.8,
1287,"1,2-Dimethylcyclohexane",C1(C(CCCC1)C)C,water,5.37032E-05,10936,-4.269999997,
1287,"1,2-Dimethylcyclohexane",C1(C(CCCC1)C)C,water,5.01187E-05,10936,-4.300000003,
1287,"1,2-dinitrobenzene",[N+](=O)([O-])c1c(cccc1)[N+](=O)[O-],water,0.000794328,10257,-3.1,
1287,"1,2-dipentanoylhydrazine",C(=O)(NNC(=O)CCCC)CCCC,water,0.006982324,23255362,-2.156,
1287,"1,2-O-(2,2,2-Trichloroethylidene)-beta-D-arabinofuranose",C21C(OC(O1)C(Cl)(Cl)Cl)OC(C2O)CO,water,0.007516229,10247019,-2.124,
1287,"1,2-O-Isopropylidene-3-O-octanoyl-alpha-D-glucofuranose",C21C(C(OC1OC(O2)(C)C)C(CO)O)OC(=O)CCCCCCC,water,0.000680769,8218806,-3.167,
1287,"1,2,2-triacetyloxyethyl acetate",C(C(OC(=O)C)OC(=O)C)(OC(=O)C)OC(=O)C,water,0.007998343,9055151,-2.097,
1287,"1,2,3-tribromobenzene",Brc1c(cccc1Br)Br,water,9.12011E-06,11349,-5.040000019,
1287,"1,2,3-tribromobenzene",c1(c(c(ccc1)Br)Br)Br,water,8.51138E-06,11349,-5.070000019,
1287,"1,2,3-Trichloro-4-(2-chlorobenzyl)-5-methylbenzene",Cc1cc(c(c(c1Cc2ccccc2Cl)Cl)Cl)Cl,water,5.7544E-08,28295219,-7.239999953,
1287,"1,2,3-trichloro-4-(2,3,4-trichlorophenyl)benzene",Clc2ccc(c1ccc(Cl)c(Cl)c1Cl)c(Cl)c2Cl,water,9.772E-09,34853,-8.010016542,
1287,"1,2,3-trichloro-4-(2,3,4-trichlorophenyl)benzene",Clc2ccc(c1ccc(Cl)c(Cl)c1Cl)c(Cl)c2Cl,water,9.77E-10,34853,-9.010105436,
1287,"1,2,3-trichloro-4-(2,4-dichlorophenyl)benzene",Clc1c(c(ccc1Cl)-c2c(cc(cc2)Cl)Cl)Cl,water,1.5849E-08,43354,-7.799998135,
1287,"1,2,3-trichloro-4-(2,4,5-trichlorophenoxy)benzene",Clc2ccc(Oc1cc(Cl)c(Cl)cc1Cl)c(Cl)c2Cl,water,4.898E-09,82811,-8.309981219,
1287,"1,2,3-trichloro-4-(2,4,5-trichlorophenoxy)benzene",Clc2ccc(Oc1cc(Cl)c(Cl)cc1Cl)c(Cl)c2Cl,water,3.631E-09,82811,-8.439973751,
1287,"1,2,3-trichloro-4-(2,4,5-trichlorophenyl)benzene",Clc1c(c(ccc1Cl)-c2c(cc(c(c2)Cl)Cl)Cl)Cl,water,4.786E-09,33984,-8.320027306,
1287,"1,2,3-trichloro-4-(3,4-dichlorophenyl)benzene",Clc1c(c(ccc1Cl)-c2cc(c(cc2)Cl)Cl)Cl,water,8.9125E-08,33282,-7.050000457,
1287,"1,2,3-Trichloro-4-(4-chlorobenzyl)-5-methylbenzene",Cc1cc(c(c(c1Cc2ccc(cc2)Cl)Cl)Cl)Cl,water,3.6308E-08,28295221,-7.439997673,
1049,"1,2,3-trichlorobenzene",Clc1cccc(Cl)c1Cl,water,3.37287E-06,13864445,-5.472,
1287,"1,2,3-trichlorobenzene",Clc1c(cccc1Cl)Cl,water,0.0001,13864445,-4,
1287,"1,2,3-trichlorobenzene",Clc1cccc(Cl)c1Cl,water,7.94328E-05,13864445,-4.100000003,
1287,"1,2,3-trichloropropane",ClC(CCl)CCl,water,0.012022644,7013,-1.92,
1287,"1,2,3-trichloropropane",C(C(CCl)Cl)Cl,water,0.012022644,7013,-1.92,
1287,"1,2,3-trimethylbenzene",Cc1c(cccc1C)C,water,0.000630957,10236,-3.2,
1287,"1,2,3,4-tetrachlorobenzene",Clc1c(c(ccc1Cl)Cl)Cl,water,2.69153E-05,21106540,-4.570000001,
1287,"1,2,3,4-tetrachlorobenzene",c1(c(c(c(cc1)Cl)Cl)Cl)Cl,water,1.99526E-05,21106540,-4.700000003,
1287,"1,2,3,4-tetrachlorodibenzo-p-dioxin",c31c(c(c(c(c1Cl)Cl)Cl)Cl)Oc2c(cccc2)O3,water,1.698E-09,32611,-8.770062314,
1287,"1,2,3,4-Tetrahydronaphthalene",C2CCc1c(cccc1)C2,water,4.2658E-05,8097,-4.369999999,
1287,"1,2,3,4,4a,5,6,7,8,8a-decahydronaphthalene",C21C(CCCC1)CCCC2,water,6.45654E-06,6777,-5.19000002,
1287,"1,2,3,4,4a,5a,6,7,8,9,9a,9b-dodecahydrodibenzothiophene 5,5-dioxide",s1(c3c(c2c1cccc2)cccc3)(=O)=O,water,2.67917E-05,13306,-4.572000004,
1287,"1,2,3,4,5-pentachloro-5-(1,2,3,4,5-pentachloro-1-cyclopenta-2,4-dienyl)cyclopenta-1,3-diene",ClC1(C(=C(C(=C1Cl)Cl)Cl)Cl)C2(C(=C(C(=C2Cl)Cl)Cl)Cl)Cl,water,5.2481E-08,15823,-7.279997898,
1287,"1,2,3,4,5-pentachloro-6-(2,4-dichlorophenyl)benzene",Clc1c(c(c(c(c1Cl)Cl)-c2c(cc(cc2)Cl)Cl)Cl)Cl,water,1.2023E-08,47915,-7.919987153,
1287,"1,2,3,4,5-pentachloro-6-(2,5-dichlorophenyl)benzene",Clc1c(c(c(c(c1Cl)Cl)-c2c(ccc(c2)Cl)Cl)Cl)Cl,water,1.148E-09,37004,-8.940058112,
1287,"1,2,3,4,5,5-hexachlorocyclopenta-1,3-diene",ClC1(C(=C(C(=C1Cl)Cl)Cl)Cl)Cl,water,6.60693E-06,6233,-5.180000032,
1287,"1,2,3,4,5,6-hexamethylbenzene",Cc1c(c(c(c(c1C)C)C)C)C,water,5.88844E-06,6642,-5.229999967,
1287,"1,2,3,4,6,7,8-Heptachlorodibenzo-p-dioxin",c31c(c(c(c(c1Cl)Cl)Cl)Cl)Oc2c(c(c(c(c2)Cl)Cl)Cl)O3,water,6E-12,34207,-11.22184875,
1287,"1,2,3,4,6,7,8-Heptachlorodibenzofuran",o1c3c(c2c1c(c(c(c2)Cl)Cl)Cl)c(c(c(c3Cl)Cl)Cl)Cl,water,3E-12,35019,-11.52287875,
1287,"1,2,3,4,7-pentachlorodibenzo-p-dioxin",c31c(c(c(c(c1Cl)Cl)Cl)Cl)Oc2c(cc(cc2)Cl)O3,water,3.31E-10,35063,-9.480172006,
1287,"1,2,3,4,7,8-Hexachlorodibenzo-p-dioxin",c31c(c(c(c(c1Cl)Cl)Cl)Cl)Oc2c(cc(c(c2)Cl)Cl)O3,water,1.12E-10,35060,-9.950781977,
1287,"1,2,3,4,7,8-Hexachlorodibenzofuran",o1c3c(c2c1cc(c(c2)Cl)Cl)c(c(c(c3Cl)Cl)Cl)Cl,water,2.2E-11,46334,-10.65757732,
1287,"1,2,3,5-tetrachlorobenzene",Clc1c(cc(cc1Cl)Cl)Cl,water,2.34423E-05,21106571,-4.630000003,
1287,"1,2,3,5-tetrachlorobenzene",c1(c(c(cc(c1)Cl)Cl)Cl)Cl,water,2.0893E-05,21106571,-4.680000006,
1287,"1,2,3,5-tetrafluorobenzene",Fc1c(cc(cc1F)F)F,water,0.004897788,21159625,-2.31,
1287,"1,2,3,6,7,8-Hexachlorodibenzofuran",o1c3c(c2c1c(c(c(c2)Cl)Cl)Cl)c(c(c(c3)Cl)Cl)Cl,water,4.7E-11,38429,-10.32790214,
1287,"1,2,3,6,7,8-Hexahydropyrene",C2Cc4c1c3c(ccc1C2)CCCc3cc4,water,1.09648E-06,67009,-5.960000078,
1287,"1,2,3,7-tetrachlorodibenzo-p-dioxin",c31c(c(c(c(c1)Cl)Cl)Cl)Oc2c(cc(cc2)Cl)O3,water,1.288E-09,44468,-8.890084137,
975,"1,2,4-triazole",n1cnnc1,water,10.338,8900,1.014436528,
1287,"1,2,4-tribromobenzene",Brc1cc(Br)c(Br)cc1,water,3.16228E-05,11507,-4.499999995,
1287,"1,2,4-trichloro-3-(2,4-dichlorophenyl)benzene",Clc1c(ccc(c1-c2c(cc(cc2)Cl)Cl)Cl)Cl,water,3.7154E-08,45444,-7.429994423,
1287,"1,2,4-trichloro-5-(2,3-dichlorophenyl)benzene",Clc1c(cccc1-c2c(cc(c(c2)Cl)Cl)Cl)Cl,water,6.166E-08,35585,-7.20999648,
1287,"1,2,4-trichloro-5-(2,3,5-trichlorophenyl)benzene",Clc1c(cc(cc1-c2c(cc(c(c2)Cl)Cl)Cl)Cl)Cl,water,2.512E-09,36710,-8.599980365,
1287,"1,2,4-trichloro-5-(2,3,6-trichlorophenyl)benzene",Clc1c(ccc(c1-c2c(cc(c(c2)Cl)Cl)Cl)Cl)Cl,water,2.239E-09,34851,-8.649945906,
1287,"1,2,4-trichlorobenzene",Clc1c(ccc(c1)Cl)Cl,water,0.00025704,13862559,-3.59,
1287,"1,2,4-trichlorobenzene",c1(c(cc(cc1)Cl)Cl)Cl,water,0.000245471,13862559,-3.609999999,
1287,"1,2,4-trichlorooxanthrene",c31c(c(c(cc1Cl)Cl)Cl)Oc2c(cccc2)O3,water,2.6303E-08,35062,-7.579994715,
1287,"1,2,4-trichlorooxanthrene",c31c(c(cc(c1Cl)Cl)Cl)Oc2c(cccc2)O3,water,2.4322E-08,35062,-7.614000716,
1287,"1,2,4-trimethylbenzene",c1c(ccc(c1C)C)C,water,0.000489779,6977,-3.31,
1287,"1,2,4,5-Tetrabromobenzene",Brc1c(cc(c(c1)Br)Br)Br,water,1.04713E-07,11974,-6.979999398,
1287,"1,2,4,5-tetrachloro-3-(2,3,5,6-tetrachlorophenyl)benzene",Clc2c(c1c(Cl)c(Cl)cc(Cl)c1Cl)c(Cl)c(Cl)cc2Cl,water,7.08E-10,15637,-9.149966742,
1287,"1,2,4,5-tetrachlorobenzene",c1c(c(cc(c1Cl)Cl)Cl)Cl,water,2.75423E-06,21106163,-5.559999953,
1287,"1,2,4,5-tetrachlorobenzene",c1c(c(cc(c1Cl)Cl)Cl)Cl,water,3.38844E-06,21106163,-5.469999944,
1287,"1,2,4,5-tetrafluorobenzene",Fc1c(cc(c(c1)F)F)F,water,0.004168694,21108549,-2.38,
1287,"1,2,4,5-tetrafluorobenzene",c1(c(cc(c(c1)F)F)F)F,water,0.004168694,21108549,-2.38,
1287,"1,2,5-trichloro-3-(2,4,6-trichlorophenyl)benzene",Clc1c(cc(cc1-c2c(cc(cc2Cl)Cl)Cl)Cl)Cl,water,1.95E-09,83413,-8.709965389,
1287,"1,3-benzenediol",Oc1cc(ccc1)O,water,6.45654229,4878,0.81,
1287,"1,3-Benzodioxole-5-carbohydrazide",c21c(ccc(c1)C(=O)NN)OCO2,water,0.250034536,80454,-0.602,
1287,"1,3-benzothiazole-2-sulfonamide",S(=O)(=O)(c1sc2c(n1)cccc2)N,water,0.002360478,61261,-2.627,
1287,"1,3-bis(4-ethoxyphenyl)urea",c1(ccc(cc1)OCC)NC(=O)Nc2ccc(cc2)OCC,water,3.66438E-05,192452,-4.436000006,
1287,"1,3-dibromobenzene",Brc1cc(ccc1)Br,water,0.000288403,13875356,-3.54,
1287,"1,3-dibromobenzene",c1(cc(ccc1)Br)Br,water,0.000288403,13875356,-3.54,
1287,"1,3-Dibromopropane",BrCCCBr,water,0.008317638,7710,-2.08,
1287,"1,3-Dibromopropane",C(CCBr)Br,water,0.008317638,7710,-2.08,
1287,"1,3-dichloro-2-(4-chlorophenyl)benzene",Clc1c(c(ccc1)Cl)-c2ccc(cc2)Cl,water,7.24436E-07,34865,-6.139999976,
1287,"1,3-dichloro-2-propanol",C(C(CCl)O)Cl,water,0.776247117,21106535,-0.11,
1287,"1,3-dichloro-2-propanol",ClCC(O)CCl,water,0.776247117,21106535,-0.11,
1287,"1,3-dichloro-5,5-dimethylimidazolidine-2,4-dione",ClN1C(C(=O)N(C1=O)Cl)(C)C,water,0.002511886,8057,-2.6,
1287,"1,3-dichlorobenzene",Clc1cc(ccc1)Cl,water,0.000912011,13857694,-3.04,
1287,"1,3-dichlorobenzene",c1(cc(ccc1)Cl)Cl,water,0.000851138,13857694,-3.07,
1287,"1,3-dichloropropane",ClCCCCl,water,0.023988329,8543,-1.62,
1287,"1,3-dichloropropane",C(CCCl)Cl,water,0.023988329,8543,-1.62,
1287,"1,3-diethylthiourea",S=C(NCC)NCC,water,0.034673685,2016737,-1.46,
1287,"1,3-difluorobenzene",Fc1cc(ccc1)F,water,0.01,21111806,-2,
1287,"1,3-dimethylbenzene",Cc1cc(ccc1)C,water,0.001513561,7641,-2.82,
1287,"1,3-dimethylbenzene",c1(cc(ccc1)C)C,water,0.001513561,7641,-2.82,
1287,"1,3-Dimethylnaphthalene",Cc1c2c(cc(c1)C)cccc2,water,5.12861E-05,10850,-4.290000003,
1287,"1,3-dinitrobenzene",[N+](=O)([O-])c1cc(ccc1)[N+](=O)[O-],water,0.005128614,7172,-2.29,
1287,"1,3,5-tribromobenzene",Brc1cc(Br)cc(Br)c1,water,2.51189E-06,11776,-5.600000075,
1287,"1,3,5-trichlorobenzene",Clc1cc(cc(c1)Cl)Cl,water,3.31131E-05,7662,-4.480000002,
1287,"1,3,5-trichlorobenzene",c1(cc(cc(c1)Cl)Cl)Cl,water,2.51189E-05,7662,-4.600000005,
1287,"1,3,5-Trimethoxybenzene",c1(cc(cc(c1)OC)OC)OC,water,0.002103778,21111723,-2.677,
1287,"1,3,5-trimethylbenzene",Cc1cc(cc(c1)C)C,water,0.000398107,7659,-3.4,
1287,"1,3,5-trimethylbenzene",c1(cc(cc(c1)C)C)C,water,0.000398107,7659,-3.4,
1287,"1,3,5-trinitrobenzene",[N+](=O)([O-])c1cc(cc(c1)[N+](=O)[O-])[N+](=O)[O-],water,0.00128825,13873689,-2.89,
1287,"1,3,6,8-tetrachlorodibenzo-p-dioxin",c31c(c(cc(c1)Cl)Cl)Oc2c(c(cc(c2)Cl)Cl)O3,water,0.000000001,33522,-9,
1287,"1,4-benzenediamine",Nc1ccc(cc1)N,water,0.416869383,13835179,-0.38,
1287,"1,4-benzenediol",Oc1ccc(cc1)O,water,0.676082975,764,-0.17,
1287,"1,4-cyclohexadiene",C1=CCC=CC1,water,0.010715193,11838,-1.97,
1287,"1,4-di(phenyl)benzene",c1(ccc(cc1)-c2ccccc2)-c3ccccc3,water,7.7625E-08,6848,-7.109998387,
1140,"1,4-dibromobenzene",Brc1ccc(Br)cc1,water,8.51138E-05,13868640,-4.07,
1287,"1,4-dibromobenzene",Brc1ccc(Br)cc1,water,8.51138E-05,13868640,-4.069999999,
1287,"1,4-Dichlorobenzene",Clc1ccc(cc1)Cl,water,0.000537032,13866817,-3.27,
1287,"1,4-Dichlorobenzene",c1(ccc(cc1)Cl)Cl,water,0.000489779,13866817,-3.31,
1287,"1,4-diethylbenzene",C(C)c1ccc(cc1)CC,water,0.000177828,7448,-3.75,
1287,"1,4-diethylbenzene",c1(ccc(cc1)CC)CC,water,0.000177828,7448,-3.75,
1287,"1,4-difluorobenzene",Fc1ccc(cc1)F,water,0.010715193,21108550,-1.97,
1287,"1,4-diiodobenzene",c1(ccc(cc1)I)I,water,4.2658E-06,11708,-5.370000019,
1287,"1,4-Dimethoxy-2-nitrobenzene",c1(c(ccc(c1)OC)OC)[N+](=O)[O-],water,0.000763836,60006,-3.117,
1287,"1,4-Dimethylbenzene",Cc1ccc(cc1)C,water,0.001698244,7521,-2.77,
1287,"1,4-Dimethylbenzene",c1(ccc(cc1)C)C,water,0.001698244,7521,-2.77,
1287,"1,4-dimethylcyclohexane",C1(CCC(CC1)C)C,water,3.38844E-05,11039,-4.469999995,
1287,"1,4-Dimethylnaphthalene",Cc1c2c(c(cc1)C)cccc2,water,7.24436E-05,10829,-4.14,
1287,"1,4-Dimethylnaphthalene",c1(ccc(c2ccccc21)C)C,water,7.24436E-05,10829,-4.14,
1287,"1,4-dinitrobenzene",[N+](=O)([O-])c1ccc(cc1)[N+](=O)[O-],water,0.00040738,7211,-3.39,
1287,"1,4-dioxaspiro[4.5]decan-2-ylmethyl carbamate",C21(OC(CO1)COC(=O)N)CCCCC2,water,0.013001696,31204,-1.886,
1287,"1,4-dithiaspiro[4.5]decan-2-ylmethyl carbamate",C21(SC(CS1)COC(=O)N)CCCCC2,water,0.000300608,186919,-3.522,
1287,"1,4-naphthalenediamine",C21C(NC(=O)N1)CCCC2CCCC(=O)O,water,0.110917482,15850,-0.955,
1287,"1,4,5-TRIMETHYLNAPHTHALENE",Cc1c2c(c(cc1)C)cccc2C,water,1.20226E-05,15620,-4.920000013,
1287,"1,5-dihydropteridine-2,4,6-trione",C21=C(NC(=O)NC1=O)N=CC(=O)N2,water,0.000749894,68250,-3.125,
1287,"1,5-dimethoxydiethyl ether",O(CCOC)CCOC,water,7.58577575,13839575,0.88,
1287,"1,5-dimethyl-2-phenyl-4-propan-2-ylpyrazol-3-one",N1(C(=O)C(=C(N1C)C)C(C)C)c2ccccc2,water,0.012359474,3646,-1.908,
1287,"1,5-dimethyl-2,4,6,8-tetraazabicyclo[3.3.1]nonane-3,7-dione",C21(CC(NC(=O)N1)(NC(=O)N2)C)C,water,0.008147043,23959238,-2.089,
1287,"1,5-Dimethylnaphthalene",Cc2c1c(c(ccc1)C)ccc2,water,1.8197E-05,10831,-4.73999999,
1287,"1,5-hexadiene",C=CCCC=C,water,0.002089296,11110,-2.68,
1287,"1,7-Dihydroxy-3-methoxy-4a,8a,9a,10a-tetrahydro-9H-xanthen-9-one",COC1=CC2C(C(=C1)O)C(=O)C3C=C(C=CC3O2)O,water,0.001148154,28295139,-2.94,
1287,"1,7-dimethyl-2-oxobicyclo[2.2.1]heptane-7-carboxylic acid",C21(C(C(CC1=O)CC2)(C(=O)O)C)C,water,0.0165577,3843137,-1.781,
1287,"1,7-Phenanthroline",n3c2c1c(nccc1)ccc2ccc3,water,0.002089296,60797,-2.68,
1287,"1,7-Phenanthroline",c21c3c(ccc1cccn2)nccc3,water,0.002084491,60797,-2.681,
1287,"1,7,7-trimethylnorbornane-2,3-dione oxime",C21(C(C(C(=NO)C1=NO)CC2)(C)C)C,water,0.002999163,19711869,-2.523,
1287,"1,7,8,9,10,10-Hexachlorotricyclo[5.2.1.02,6]deca-4,8-dien-3-ol",ClC21C3C(C(C1(Cl)Cl)(C(=C2Cl)Cl)Cl)C=CC3O,water,3.46737E-06,23829,-5.459999938,
1287,"1,8-dihydropteridine-2,4,7-trione",C21=C(C(=O)NC(=O)N1)N=CC(=O)N2,water,0.000462381,68251,-3.335,
1287,10-[3-(4-methylpiperazin-1-yl)propyl]-2-(trifluoromethyl)phenothiazine,FC(F)(F)c1cc3c(cc1)Sc2c(cccc2)N3CCCN4CCN(CC4)C,water,3.01995E-05,5365,-4.520000003,
1287,10-methyl-9-phenylacridin-9-ol,C2(c1c(cccc1)N(c3c2cccc3)C)(c4ccccc4)O,water,0.000125026,203003,-3.903,
1287,10-methylacridin-9-one,c31c(cccc1)C(=O)c2c(cccc2)N3C,water,3.45144E-05,62950,-4.461999999,
1287,10-methylphenothiazine,c31c(cccc1)Sc2c(cccc2)N3C,water,2.5527E-06,64175,-5.593000051,
1287,"10,13-dimethyl-7,8,9,11,12,14,15,16-octahydro-6H-cyclopenta[a]phenanthrene-3,17-dione",C43(C1C(C2C(CC1)(C(=O)CC2)C)CCC3=CC(=O)C=C4)C,water,0.001629296,2107,-2.788,
1287,1024-57-3,ClC43C2C1OC1C(C2C(C3(Cl)Cl)(C(=C4Cl)Cl)Cl)Cl,water,5.12861E-07,13328,-6.290000325,
1287,1024-57-3,C41(C(C(C2C1C3C(C2Cl)O3)(C(=C4Cl)Cl)Cl)(Cl)Cl)Cl,water,8.99498E-07,13328,-6.045999798,
1287,11-a-Hydroxyprogesterone,C3(CC(=O)C=C4CCC2C1CCC(C(=O)C)C1(C)CCC2C43C)O,water,0.000151356,11531626,-3.82,
1287,11-Aminoundecanoic acid,NCCCCCCCCCCC(=O)O,water,0.001995262,16168,-2.7,
1287,"11-Ethyl-2-[(2-hydroxyethyl)(methyl)amino]-5,11-dihydro-6H-dipyrido[3,2-b:2',3'-e][1,4]diazepin-6-one",CCN1c2c(cccn2)C(=O)Nc3c1nc(cc3)N(C)CCO,water,0.000436516,28295158,-3.36,
1287,"11-Ethyl-2,4-dimethyl-5,11-dihydro-6H-dipyrido[2,3-e:3',2'-b][1,4]diazepin-6-one",N2(c1nc(cc(c1NC(=O)c3c2nccc3)C)C)CC,water,2.81838E-05,407681,-4.550000005,
1287,"11-ethyl-5-methylbenzo[b][1,4]benzodiazepin-6-one",N2(c1c(cccc1)N(C(=O)c3c2cccc3)C)CC,water,1.77828E-05,399306,-4.750000002,
1287,"11-ethyl-6-methylpyrido[3,2-c][1,5]benzodiazepin-5-one",N2(c1ncccc1C(=O)N(c3c2cccc3)C)CC,water,0.00047863,399198,-3.32,
1287,"11-Ethyl-9-methoxy-7-methyl-6,11-dihydro-5H-pyrido[2,3-b][1,5]benzodiazepin-5-one",CCN1c2cc(cc(c2NC(=O)c3c1nccc3)C)OC,water,7.07946E-06,28295213,-5.14999999,
1287,129618-40-2,N2(c1nccc(c1NC(=O)c3c2nccc3)C)C4CC4,water,0.000645654,4308,-3.19,
1287,132312-85-7,N2(c1ncccc1N(C(=O)c3c2nccc3)C)CC,water,0.002398833,399254,-2.62,
1287,133627-12-0,Clc1nc3c(cc1)N(C(=O)c2c(nccc2)N3CC)C,water,7.76247E-05,399273,-4.109999998,
1287,"13H-dibenzo(a,i)carbazole",[nH]1c4c(c2c1c3c(cc2)cccc3)ccc5c4cccc5,water,3.8019E-08,8845,-7.41999931,
1287,"14-Hydroxy-8,16-diazahexacyclo[11.5.2.1~1,8~.0~2,7~.0~12,21~.0~16,19~]henicosa-2,4,6,10-tetraene-9,15-dione",c1ccc2c(c1)C34CCN5C3CC(C6C4N2C(=O)C=C6)C(C5=O)O,water,0.007762471,28295101,-2.11,
1287,143-50-0,ClC31C4(C2(C5(C(C1(C2(Cl)Cl)Cl)(C3(C(=O)C54Cl)Cl)Cl)Cl)Cl)Cl,water,5.49541E-06,293,-5.259999979,
1287,"16-(dimethylaminomethyl)-3-hydroxy-10,13-dimethyl-1,2,3,4,7,8,9,11,12,14,15,16-dodecahydrocyclopenta[a]phenanthren-17-one",C21C(C(=O)C(C1)CN(C)C)(CCC3C2CC=C4C3(CCC(C4)O)C)C,water,0.032210688,243430,-1.492,
1287,17-a-hydroxyprogesterone,OC4(C3(C(C2C(C1(CCC(=O)C=C1CC2)C)CC3)CC4)C)C(=O)C,water,1.94984E-05,455281,-4.71,
1287,"17-acetyl-9-fluoro-11,17-dihydroxy-6,10,13-trimethyl-6,7,8,11,12,14,15,16-octahydrocyclopenta[a]phenanthren-3-one",FC32C(C1C(C(CC1)(O)C(=O)C)(CC2O)C)CC(C4=CC(=O)C=CC43C)C,water,7.94328E-05,3267,-4.100000003,
1287,"17-hydroxy-17-(1-hydroxyethyl)-10,13-dimethyl-2,6,7,8,9,11,12,14,15,16-decahydro-1H-cyclopenta[a]phenanthren-3-one",C21(C(CCC1C4C(CC2)C3(C(=CC(=O)CC3)CC4)C)(C(O)C)O)C,water,6.99842E-05,543392,-4.154999998,
1287,"17-Methyl-5,6,7,8-tetradehydromorphinan-3,4-diol",CN1CCC23C=CC=CC2C1Cc4c3c(c(cc4)O)O,water,0.019010783,28295083,-1.721,
1287,191-24-2,c21c3c4c5c6c1c(ccc2ccc3ccc4ccc5)ccc6,water,9.33E-10,8763,-9.030118356,
1287,192-97-2,c21c3c4c5c(c1cccc2ccc3ccc4)cccc5,water,1.5849E-08,8774,-7.799998135,
1287,2-(1-hydroxy-1-oxobutan-2-yl)sulfanylbutanoic acid,C(SC(C(=O)O)CC)(C(=O)O)CC,water,0.197242274,277450,-0.705,
1287,2-(1-hydroxy-1-oxopropan-2-yl)disulfanylpropanoic acid,C(C(=O)O)(SSC(C(=O)O)C)C,water,0.24266101,454654,-0.615,
1287,2-(1-hydroxy-1-oxopropan-2-yl)sulfanylcarbothioylsulfanylpropanoic acid,C(C(=O)O)(SC(=S)SC(C(=O)O)C)C,water,0.038815037,206280,-1.411,
1287,2-(1-Naphthyl)ethyl hexopyranoside,c1ccc2c(c1)cccc2CCOC3C(C(C(C(O3)CO)O)O)O,water,0.077803655,28295054,-1.109,
1287,2-(1-Piperazinyl)ethyl 2-(6-methoxy-2-naphthyl)propanoate,CC(c1ccc2cc(ccc2c1)OC)C(=O)OCCN3CCNCC3,water,0.030269134,28295073,-1.519,
1287,"2-(1,1,2,2-tetrachloroethylsulfanyl)-3a,4,7,7a-tetrahydroisoindole-1,3-dione",ClC(Cl)(SN2C(=O)C1C(CC=CC1)C2=O)C(Cl)Cl,water,3.98107E-06,16139,-5.399999968,
1287,"2-(1,3-dioxoisoindol-2-yl)-2-methylbutanoic acid",C(N2C(=O)c1c(cccc1)C2=O)(C(=O)O)(CC)C,water,0.012189896,10469253,-1.914,
1287,2-(1H)quinolinone,N2c1c(cccc1)C=CC2=O,water,0.00724436,5816,-2.14,