Experiment Number (900 series refer to external references),solute,solute SMILES,solvent,concentration (M),csid,solubility,
1287,tryptophan,c1ccc2c(c1)c(c[nH]2)C[C@@H](C(=O)O)N,water,0.058884366,6066,-1.23,
1287,tryptophan,c1ccc2c(c1)c(c[nH]2)C[C@@H](C(=O)O)N,water,0.016982437,6066,-1.77,
1287,tubercidin,n2(c1ncnc(c1cc2)N)C3OC(C(C3O)O)CO,water,0.011220185,5402,-1.95,
1287,Tyramine,NCCc1ccc(cc1)O,water,0.075857758,5408,-1.12,
1287,undecanoic acid,O=C(O)CCCCCCCCCC,water,0.000281838,7888,-3.55,
1287,undecylic acid,OC(=O)CCCCCCCCC=C,water,0.000398107,10771160,-3.4,
1049,uracil,c1c[nH]c(=O)[nH]c1=O,water,0.015631476,1141,-1.806,
1287,uracil,N1C=CC(=O)NC1=O,water,0.033113112,1141,-1.48,
1287,urea,NC(=O)N,water,9.120108394,1143,0.96,
1049,uric acid,O=C1\C2=C(/NC(=O)N1)NC(=O)N2,water,0.000243781,1142,-3.613,
1287,uric acid,O=C1\C2=C(/NC(=O)N1)NC(=O)N2,water,0.000237684,1142,-3.623999999,
1287,uric acid,O=C1\C2=C(/NC(=O)N1)NC(=O)N2,water,0.00011749,1142,-3.930000002,
1287,urocanic acid,[nH]1cnc(c1)C=CC(=O)O,water,0.010964782,643824,-1.96,
1287,ursocholic acid,OC(=O)CC[C@@H](C)[C@H]1CC[C@H]2[C@H]3[C@H](C[C@H](O)[C@]12C)[C@@]4(C)CC[C@@H](O)C[C@H]4CC3O,water,0.002559764,17216023,-2.5918,
1287,valproic acid,OC(=O)C(CCC)CCC,water,0.013803843,3009,-1.86,
1287,vamidothion,S(P(=O)(OC)OC)CCSC(C)C(=O)NC,water,13.80384265,486975,1.14,
1287,vanillic acid,O(C)c1c(ccc(c1)C(=O)O)O,water,0.008912509,8155,-2.05,
919,vanillin,Oc1ccc(cc1OC)C=O,water,0.070,13860434,-1.154893397,
1287,vasicinone,N31CCC(C1=Nc2c(cccc2)C3O)O,water,0.00851138,10468525,-2.07,
920,veratraldehyde,COc1cc(ccc1OC)C=O,water,0.070,21106008,-1.156105085,
1287,veratrole,COc1c(cccc1)OC,water,0.048977882,13861009,-1.31,
1287,vernolate,CCCN(CCC)C(=O)SCCC,water,0.000501187,15204,-3.3,
1287,vulvic acid,OC(=O)CCCCCCCCCCC,water,2.39883E-05,3756,-4.620000003,
1287,warfarin,C2(=C(c1c(cccc1)OC2=O)O)C(c3ccccc3)CC(=O)C,water,1.24738E-05,10442445,-4.904000005,
1287,warfarin,O2c1c(cccc1)C(=C(C2=O)C(CC(=O)C)c3ccccc3)O,water,0.000128825,10442445,-3.890000001,
1287,warfarin,CC(=O)CC(C\1=C(/O)c2ccccc2OC/1=O)c3ccccc3,water,1.64513E-05,10442445,-4.783799989,
1287,warfarin,O=C2C(=C(O)c1c(cccc1)O2)C(CC(=O)C)c3ccccc3,water,0.000128825,10442445,-3.890000001,
1049,xanthine,c1[nH]c2c(n1)nc(nc2O)O,water,0.000134586,1151,-3.871,
1287,xanthopterin,C21=C(N=C(NC1=O)N)N=CC(=O)N2,water,0.000139637,8091,-3.855,
1287,XMC,N(C)C(=O)Oc1cc(cc(c1)C)C,water,0.002630268,16606,-2.58,
1287,ZINC02631261,N1(C(=O)C(=C(N1C)C)NC(=O)NCCCC)c2ccccc2,water,0.023496328,1569246,-1.629,