Experiment Number (900 series refer to external references),solute,solute SMILES,solvent,concentration (M),csid,solubility,
1287,N-Acetyl-O-benzoylserine,CC(=O)NC(COC(=O)c1ccccc1)C(=O)O,water,0.000599791,28295155,-3.222,
1287,"N-Acetyl-S-(2,6-dichlorophenyl)cysteine",CC(=O)NC(CSc1c(cccc1Cl)Cl)C(=O)O,water,0.004886524,28295109,-2.311,
1287,N-acetylsulfanilamide,S(=O)(=O)(N)c1ccc(cc1)NC(=O)C,water,0.024547089,8169,-1.61,
1287,n-amyl carbamate,NC(=O)OCCCCC,water,0.033884416,62696,-1.47,
1287,N-Benzoyl-2-methylalanylglycine,CC(C)(C(=O)NCC(=O)O)NC(=O)c1ccccc1,water,0.27542287,28295043,-0.56,
1287,N-carbamoyl-2-propan-2-ylpent-4-enamide,C(=O)(C(C(C)C)CC=C)NC(=O)N,water,0.001790606,10264,-2.747,
1287,N-chloro-4-methylbenzenesulfonimidate,S(=O)(=O)(c1ccc(cc1)C)[N-]Cl,water,0.439541615,19151143,-0.357,
1287,N-Cyclohexyl-N-hydroxycyclobutanecarboxamide,C1CCC(CC1)N(C(=O)C2CCC2)O,water,0.001999862,28295129,-2.699,
1287,N-Cyclohexyl-N-hydroxycyclopentanecarboxamide,C1CCC(CC1)N(C(=O)C2CCCC2)O,water,0.000699842,28295151,-3.155,
1287,N-Cyclohexyl-N-hydroxycyclopropanecarboxamide,C1CCC(CC1)N(C(=O)C2CC2)O,water,0.009225714,28295095,-2.035,
1287,N-cyclohexylpyridine-3-carboxamide,c1(cnccc1)C(=O)NC2CCCCC2,water,0.004797334,223108,-2.319,
1287,N-decyl-2-hydroxypropanamide,C(=O)(C(O)C)NCCCCCCCCCC,water,0.000435512,194060,-3.361,
1287,N-decylpyridine-3-carboxamide,c1(cnccc1)C(=O)NCCCCCCCCCC,water,0.000837529,404415,-3.077,
1287,n-dibutylamine,N(CCCC)CCCC,water,0.036307805,7856,-1.44,
1287,N-diethylsulfinamoyl-N-ethylethanamine,S(=O)(N(CC)CC)N(CC)CC,water,0.0519996,105928,-1.284,
1287,N-ethylaniline,N(CC)c1ccccc1,water,0.019952623,7387,-1.7,
1287,n-heptyl carbamate,NC(=O)OCCCCCCC,water,0.002398833,203218,-2.62,
1287,N-heptylpyridine-3-carboxamide,c1(cnccc1)C(=O)NCCCCCCC,water,0.000635331,3587655,-3.197,
1287,n-hexyl carbamate,NC(=O)OCCCCCC,water,0.012022644,67579,-1.92,
1287,N-hexyl-2-hydroxypropanamide,C(=O)(C(O)C)NCCCCCC,water,0.112460497,194055,-0.949,
1287,N-hexylpyridine-3-carboxamide,c1(cnccc1)C(=O)NCCCCCC,water,0.003006076,404413,-2.522,
1287,N-hexylsulfonylhexane-1-sulfonamide,N(S(=O)(=O)CCCCCC)S(=O)(=O)CCCCCC,water,0.006382635,10468887,-2.195,
1287,N-Hydroxy-2-[(E)-(2-pyridinylmethylene)amino]benzamide,c1ccc(c(c1)C(=O)NO)/N=C/c2ccccn2,water,0.0006223,28295153,-3.206,
1287,N-hydroxy-2-iodo-N-phenylbenzamide,c1(c(cccc1)I)C(=O)N(c2ccccc2)O,water,0.000295121,10469015,-3.53,
1287,N-Hydroxy-2-phenyl-2-propylpentanamide,CCCC(CCC)(c1ccccc1)C(=O)NO,water,0.00130017,28295135,-2.886,
1287,"N-Hydroxy-2,2-dimethyldodecanamide",CCCCCCCCCCC(C)(C)C(=O)NO,water,1.59956E-05,28295207,-4.796000008,
1287,"N-Hydroxy-2,2-dipropyloctanamide",CCCCCCC(CCC)(CCC)C(=O)NO,water,0.001499685,28295133,-2.824,
1287,"N-Hydroxy-3-mesityl-2,2-dimethylpropanamide",Cc1cc(c(c(c1)C)CC(C)(C)C(=O)NO)C,water,0.000299916,28295165,-3.523,
1287,"N-Hydroxy-3,5-dimethoxy-N-(2-methylphenyl)benzamide",Cc1ccccc1N(C(=O)c2cc(cc(c2)OC)OC)O,water,0.000226464,28295175,-3.645,
1287,"N-Hydroxy-3,5-dimethoxy-N-(3-methylphenyl)benzamide",Cc1cccc(c1)N(C(=O)c2cc(cc(c2)OC)OC)O,water,0.000243781,28295171,-3.613,
1287,"N-Hydroxy-3,5-dimethoxy-N-phenylbenzamide",COc1cc(cc(c1)OC)C(=O)N(c2ccccc2)O,water,0.000787046,28295149,-3.104,
1287,N-Hydroxy-4-nitrobenzamide,c1(ccc(cc1)[N+](=O)[O-])C(=O)NO,water,0.011508004,4221469,-1.939,
1287,"N-hydroxy-5-methoxy-1,3-dihydrobenzo[de]isoquinoline-2-carboxamidine",c21c3cc(cc1cccc2CN(C3)C(=NO)N)OC,water,0.061094202,25037672,-1.214,
1287,"N-hydroxy-7-methoxy-1,3,3a,4,5,6-hexahydrobenzo[de]isoquinoline-2-carboxamidine",c21c3c(ccc1CN(CC2CCC3)C(=NO)N)OC,water,0.016749429,25047511,-1.776,
1287,"N-hydroxy-7-methyl-1,3,3a,4,5,6-hexahydrobenzo[de]isoquinoline-2-carboxamidine",c21c3ccc(c1CCCC2CN(C3)C(=NO)N)C,water,0.063679552,25036582,-1.196,
1287,N-Hydroxy-N-(2-methylphenyl)-3-phenylpropanamide,Cc1ccccc1N(C(=O)CCc2ccccc2)O,water,0.001606941,28295131,-2.794,
1287,N-Hydroxy-N-(3-methylphenyl)-3-phenylpropanamide,Cc1cccc(c1)N(C(=O)CCc2ccccc2)O,water,0.000391742,28295159,-3.407,
1287,N-hydroxy-N-methyl-4-nitrobenzamide,C(=O)(c1ccc(cc1)[N+](=O)[O-])N(O)C,water,0.001352073,4929681,-2.869,
1287,N-Hydroxy-N-methylcycloheptanecarboxamide,CN(C(=O)C1CCCCCC1)O,water,0.035318317,28295064,-1.452,
1287,N-hydroxy-N-naphthalen-1-ylbenzamide,c1(c2c(ccc1)cccc2)N(C(=O)c3ccccc3)O,water,0.000493174,10468978,-3.307,
1287,N-hydroxy-N-phenylfuran-2-carboxamide,C(=O)(N(c1ccccc1)O)c2occc2,water,0.000639735,491301,-3.194,
1287,N-hydroxy-N-phenylnaphthalene-1-carboxamide,c1(c2c(ccc1)cccc2)C(=O)N(c3ccccc3)O,water,0.000114025,10468977,-3.942999999,
1287,N-Methoxy-4-nitrobenzamide,CONC(=O)c1ccc(cc1)[N+](=O)[O-],water,0.005211947,28295108,-2.283,
1287,N-methyl-2-pyridone,N1(C=CC=CC1=O)C,water,9.120108394,12231,0.96,
1287,N-methyl-3-phenyl-3-[4-(trifluoromethyl)phenoxy]propan-1-amine,C(c1ccc(cc1)OC(c2ccccc2)CCNC)(F)(F)F,water,0.025703958,3269,-1.59,
1287,N-methylacetanilide,N(C)(c1ccccc1)C(=O)C,water,0.112201845,10886,-0.95,
1287,N-methylaniline,N(C)c1ccccc1,water,0.052480746,7234,-1.28,
1287,N-methylanthranilic acid,N(C)c1c(cccc1)C(=O)O,water,0.001318257,60420,-2.88,
1287,N-methylmorpholine,N1(CCOCC1)C,water,10,7684,1,
1287,N-methylpiperidine,N1(CCCCC1)C,water,1.698243652,11788,0.23,
1287,N-methylpyrrolidone,N1(CCCC1=O)C,water,10,12814,1,
1287,N-methylurea,N(C)C(=O)N,water,13.48962883,11227,1.13,
1287,N-naphthalen-2-yl-2-sulfanylacetamide,c21c(ccc(c1)NC(=O)CS)cccc2,water,0.000460257,60099,-3.337,
1287,N-nitrosopiperidine,N1(CCCCC1)N=O,water,0.676082975,7245,-0.17,
1287,N-nonylpyridine-3-carboxamide,c1(cnccc1)C(=O)NCCCCCCCCC,water,0.000724436,3488332,-3.14,
1287,n-octyl carbamate,NC(=O)OCCCCCCCC,water,0.000501187,15412,-3.3,
1287,N-octylpyridine-3-carboxamide,c1(cnccc1)C(=O)NCCCCCCCC,water,0.000981748,404414,-3.008,
1287,N-octylsulfonyloctane-1-sulfonamide,N(S(=O)(=O)CCCCCCCC)S(=O)(=O)CCCCCCCC,water,0.001216186,10468888,-2.915,
1016,N-phenyl-4-methyl-3-nitrobenzohydroxamic acid,C1(=CC=CC=C1)N(O)C(C2=CC(=C(C=C2)C)[N+](=O)[O-])=O,water,0.021,26286843,-1.677999997,
1016,N-phenyl-4-nitrobenzohydroxamic acid,[O-][N+](=O)c2ccc(C(=O)N(O)c1ccccc1)cc2,water,0.027,3841535,-1.569000005,
1016,N-phenylbenzohydroxamic acid,O=C(N(O)c1ccccc1)c2ccccc2,water,0.024,60858,-1.619,
1287,N-phenylbenzohydroxamic acid,O=C(N(O)c1ccccc1)c2ccccc2,water,0.001874995,60858,-2.727,
1287,N-phenyldiethanolamine,N(CCO)(CCO)c1ccccc1,water,0.186208714,8109,-0.73,
1287,N-pyridin-2-ylpyridine-3-carboxamide,c1(cnccc1)C(=O)Nc2ncccc2,water,0.001054387,75054,-2.977,
1287,"N-tert-Butyl-N'-(4-ethylbenzoyl)-3,5-dimethylbenzohydrazide",N(C(=O)c1cc(cc(c1)C)C)(C(C)(C)C)NC(=O)c2ccc(cc2)CC,water,2.35505E-06,82870,-5.628000052,
1287,"N,N-bis(2-chloroethyl)-2-oxo-1-oxa-3-aza-2$l^{5}-phosphacycloheptan-2-amine",P1(=O)(N(CCCl)CCCl)OCCCCN1,water,0.109144034,104461,-0.962,
1287,"N,N-Bis(2-cyanoethyl)leucine",CC(C)CC(C(=O)O)N(CCC#N)CCC#N,water,0.071944898,28295055,-1.143,
1287,"N,N-Bis(2-cyanoethyl)tyrosine",c1cc(ccc1CC(C(=O)O)N(CCC#N)CCC#N)O,water,0.020941125,28295079,-1.679,
1287,"N,N-dibromobenzenesulfonamide",S(=O)(=O)(c1ccccc1)N(Br)Br,water,0.00052723,9453473,-3.278,
1287,"N,N-dichloro-4-methylbenzenesulfonamide",S(=O)(=O)(c1ccc(cc1)C)N(Cl)Cl,water,0.000309742,61371,-3.509,
1287,"N,N-diethyl-1-phenothiazin-10-ylpropan-2-amine",N2(c1c(cccc1)Sc3c2cccc3)CC(N(CC)CC)C,water,0.007161434,3174,-2.145,
1287,"N,N-diethyl-2-(9H-[1,2,4]triazino[6,5-b]indol-3-ylsulfanyl)ethanamine",c21c3c([nH]c1nnc(n2)SCCN(CC)CC)cccc3,water,0.000805378,4922069,-3.094,
1287,"N,N-diethylaniline",N(CC)(CC)c1ccccc1,water,0.000933254,6794,-3.03,
1287,"N,N-dimethyl-2-(1-phenyl-1-pyridin-2-ylethoxy)ethanamine",C(c1ncccc1)(c2ccccc2)(OCCN(C)C)C,water,0.001513561,3050,-2.82,
1287,"N,N-Dimethyl-2-(phenylsulfonyl)propanamide",CC(C(=O)N(C)C)S(=O)(=O)c1ccccc1,water,0.136458314,28295049,-0.865,
1287,"N,N-dimethyl-2-[6-methyl-2-(4-methylphenyl)imidazo[3,2-a]pyridin-3-yl]acetamide",c1(c(nc2n1cc(cc2)C)-c3ccc(cc3)C)CC(=O)N(C)C,water,0.05046613,5530,-1.297,
1287,"N,N-dimethyl-3-[1-(phenylmethyl)cycloheptyl]oxypropan-1-amine",C2(Cc1ccccc1)(OCCCN(C)C)CCCCCC2,water,0.024043628,2222,-1.619,
1287,"N,N-dimethyl-3-[2-(trifluoromethyl)phenothiazin-10-yl]propan-1-amine",FC(F)(F)c1cc3c(cc1)Sc2c(cccc2)N3CCCN(C)C,water,5.01187E-06,5367,-5.300000029,
1287,"N,N-Dimethyl-4-nitrobenzamide",C(=O)(c1ccc(cc1)[N+](=O)[O-])N(C)C,water,0.054075432,122569,-1.267,
1287,"N,N-dimethyl-4-phenyldiazenylaniline",c1(ccc(cc1)N=Nc2ccccc2)N(C)C,water,5.59758E-06,5829,-5.252000001,
1287,"N,N-dimethylacetamide",N(C)(C)C(=O)C,water,12.88249552,29107,1.11,
1287,"N,N-dimethylacetamide",C(=O)(C)N(C)C,water,12.88249552,29107,1.11,
1287,"N,N-dimethylaniline",N(C)(C)c1ccccc1,water,0.012022644,924,-1.92,
1287,"N,N-dimethylpteridin-2-amine",c21c(cnc(n1)N(C)C)nccn2,water,2.285598803,10381727,0.359,
1287,"N,N-dimethylpteridin-4-amine",c21c(ncnc1nccn2)N(C)C,water,0.095060479,10465221,-1.022,
1287,"N,N-dimethylpteridin-7-amine",c21c(ncc(n1)N(C)C)cncn2,water,0.950604794,10465223,-0.022,
1287,"N,N,N',N'-tetramethylbenzene-1,2-dicarboxamide",c1(c(cccc1)C(=O)N(C)C)C(=O)N(C)C,water,3.221068791,208978,0.508,
1287,"N,N,N',N'-tetramethylbenzene-1,3-dicarboxamide",c1(cc(ccc1)C(=O)N(C)C)C(=O)N(C)C,water,3.069021988,2958396,0.487,
1287,"N,N,N',N'-tetramethylbenzene-1,4-dicarboxamide",C(=O)(c1ccc(cc1)C(=O)N(C)C)N(C)C,water,1.845015419,214279,0.266,
1287,"N,N,N',N'-tetramethylbutanediamide",C(=O)(N(C)C)CCC(=O)N(C)C,water,3.191537855,22208,0.504,
1287,"N,N'-[1,4-Pyrazinediylbis(2,2,2-trichloro-1,1-ethanediyl)]diformamide",C1=CN(C=CN1C(C(Cl)(Cl)Cl)NC=O)C(C(Cl)(Cl)Cl)NC=O,water,6.45654E-05,28295188,-4.189999999,
1287,"N,N'-bis(2-hydroxyethyl)hexanediamide",C(=O)(CCCCC(=O)NCCO)NCCO,water,2.582260191,201485,0.412,
1287,"N,N'-bis(2-hydroxyethyl)oxamide",C(=O)(C(=O)NCCO)NCCO,water,0.772680585,67213,-0.112,
1287,"N,N'-Bis(2-methylphenyl)-2-oxomalonamide",Cc1ccccc1NC(=O)C(=O)C(=O)Nc2ccccc2C,water,0.006367955,28295105,-2.196,
1287,"N,N'-bis(3,5,5-trimethylhexyl)ethane-1,2-diamine",C(CC(CCNCCNCCC(CC(C)(C)C)C)C)(C)(C)C,water,0.005714786,368222,-2.243,
1287,"N,N'-bis(phenylmethyl)ethane-1,2-diamine",c1(ccccc1)CNCCNCc2ccccc2,water,0.062230029,8463,-1.206,
1287,"N,N'-dicyclohexylethane-1,2-diamine",C2(NCCNC1CCCCC1)CCCCC2,water,0.104712855,241004,-0.98,
1287,"N,N'-diethyl-6-methylsulfanyl-1,3,5-triazine-2,4-diamine",c1(nc(nc(n1)SC)NCC)NCC,water,0.002108628,13303,-2.676,
1287,"N,N'-dimethyl-1H,3H-benzo[de]isoquinoline-2-carboxamidine",c21c3cccc1cccc2CN(C3)C(=NC)NC,water,0.070469307,23232523,-1.152,
1287,"N'-(4-aminophenyl)-1,3-dihydrobenzo[de]isoquinoline-2-carboxamidine",c21c3cccc1cccc2CN(C3)C(=Nc4ccc(cc4)N)N,water,0.014723125,25046916,-1.832,
1287,"N'-(4-Chloro-2-methylphenyl)-N,N-dimethylmethanimidamide",Clc1cc(c(cc1)N=CN(C)C)C,water,0.001380384,21141,-2.86,
1287,"N'-(6-chloro-2-methoxyacridin-9-yl)-N,N-diethylpentane-1,4-diamine",c1(c3c(nc2c1ccc(c2)Cl)ccc(c3)OC)NC(CCCN(CC)CC)C,water,0.002290868,232,-2.64,
1287,"N'-(dimethylamino)-1,3-dihydrobenzo[de]isoquinoline-2-carboxamidine",c21c3cccc1cccc2CN(C3)C(=N)NN(C)C,water,0.085703785,25052885,-1.067,
1287,N'-butanoylbutanehydrazide,C(=O)(NNC(=O)CCC)CCC,water,0.100925289,208350,-0.996,
1287,"N'-hydroxy-1,3,3a,4,5,6-hexahydrobenzo[de]isoquinoline-2-carboxamidine",c21c3cccc1CCCC2CN(C3)C(=NO)N,water,0.044668359,25041704,-1.35,
1287,N'-Isopropylidene-1H-benzo[de]isoquinoline-2(3H)-carboximidohydrazide,CC(=NNC(=N)N1Cc2cccc3c2c(ccc3)C1)C,water,0.003288516,28295121,-2.483,
1049,nadolol,OC(CNC(C)(C)C)COc1cccc2c1C[C@H](O)[C@H](O)C2,water,0.098174794,35815,-1.008,
1287,naepaine,N(CCOC(=O)c1ccc(cc1)N)CCCCC,water,0.000537032,11470,-3.27,
1049,nalidixic acid,O=C\2c1c(nc(cc1)C)N(/C=C/2C(=O)O)CC,water,0.000314051,4268,-3.503,
1287,nalidixic acid,O=C\2c1c(nc(cc1)C)N(/C=C/2C(=O)O)CC,water,0.000135831,4268,-3.866999999,
1287,nalidixic acid,N1(C=C(C(=O)c2c1nc(cc2)C)C(=O)O)CC,water,0.00042658,4268,-3.37,
1287,nalidixic acid,O=C\2c1c(nc(cc1)C)N(/C=C/2C(=O)O)CC,water,0.000245414,4268,-3.610100001,
1287,naloxone,O=C4[C@@H]5Oc1c2c(ccc1O)C[C@H]3N(CC[C@]25[C@@]3(O)CC4)C\C=C,water,0.001265319,4447644,-2.8978,
1049,naphthalene,c1ccc2ccccc2c1,water,0.000212814,906,-3.672,
1287,naphthalene,c1ccc2ccccc2c1,water,0.000251189,906,-3.6,
1287,naphthalene,c1cccc2ccccc21,water,0.000251189,906,-3.6,
1287,"naphthalene-1,5-diol",Oc2c1c(c(ccc1)O)ccc2,water,0.001202264,6492,-2.92,
1287,naphthalene-2-sulfonic acid,S(=O)(=O)(c1cc2c(cc1)cccc2)O,water,0.054325033,8113,-1.265,
947,naproxen,O=C(O)[C@H](c1ccc2c(c1)ccc(OC)c2)C,water,0.000,137720,-4.160819902,
969,naproxen,O=C(O)[C@H](c1ccc2c(c1)ccc(OC)c2)C,water,0.00028,137720,-3.552841969,
1049,naproxen,C[C@@H](c1ccc2cc(ccc2c1)OC)C(=O)O,water,0.000163305,137720,-3.787,
1287,naproxen,C[C@@H](c1ccc2cc(ccc2c1)OC)C(=O)O,water,6.91831E-05,137720,-4.160000001,
1287,niacinamide,c1cc(cnc1)C(=O)N,water,4.073802778,911,0.61,
1287,niclosamide,[N+](=O)([O-])c1cc(c(cc1)NC(=O)c2c(ccc(c2)Cl)O)Cl,water,1.99526E-05,4322,-4.700000003,
1287,nicotine,N1(C(CCC1)c2cnccc2)C,water,6.165950019,80863,0.79,
907,nicotinic acid,O=C(O)c1cccnc1,water,0.365,913,-0.437469231,
1030,nicotinic acid,c1cc(cnc1)C(=O)O,water,0.119962263,913,-0.920955349,
1287,nicotinic acid,n1cc(ccc1)C(=O)O,water,0.144543977,913,-0.84,
1287,nifedipine,O=C(OC)\C1=C(\N/C(=C(/C(=O)OC)C1c2ccccc2[N+]([O-])=O)C)C,water,2.88403E-05,4330,-4.54,
1287,nifedipine,O=C(OC)\C1=C(\N/C(=C(/C(=O)OC)C1c2ccccc2[N+]([O-])=O)C)C,water,1.7378E-05,4330,-4.760000007,
959,niflumic acid,FC(F)(F)c1cc(ccc1)Nc2ncccc2C(=O)O,water,0.000,4333,-4.171831109,
969,niflumic acid,FC(F)(F)c1cc(ccc1)Nc2ncccc2C(=O)O,water,0.0003,4333,-3.522878745,
1151,niflumic acid,FC(F)(F)c1cc(ccc1)Nc2ncccc2C(=O)O,water,0.000302274,4333,-3.519599016,
1287,niflumic acid,FC(F)(F)c1cc(ccc1)Nc2ncccc2C(=O)O,water,6.76083E-05,4333,-4.169999997,
1287,niflumic acid,FC(F)(F)c1cc(ccc1)Nc2ncccc2C(=O)O,water,2.63694E-05,4333,-4.578899999,
1287,nifuroxime,[N+](=O)([O-])c1oc(cc1)C=NO,water,0.006456542,4979197,-2.19,
1287,nimetazepam,[N+](=O)([O-])c1cc2c(cc1)N(C(=O)CN=C2c3ccccc3)C,water,0.000158489,4340,-3.800000001,
1287,niridazole,[N+](=O)([O-])c1sc(nc1)N2CCNC2=O,water,0.00060256,5868,-3.22,
1287,nitrazepam,[N+](=O)([O-])c1cc2c(cc1)NC(=O)CN=C2c3ccccc3,water,0.000164059,4350,-3.785000001,
1287,nitrazepam,[N+](=O)([O-])c1cc2c(cc1)NC(=O)CN=C2c3ccccc3,water,0.000158489,4350,-3.800000001,
1287,nitrobenzene,[N+](=O)([O-])c1ccccc1,water,0.015848932,7138,-1.8,
1287,nitrobenzene,c1(ccccc1)[N+](=O)[O-],water,0.014791084,7138,-1.83,
1287,nitroethane,[N+](=O)([O-])CC,water,0.602559586,6338,-0.22,
1287,nitroethane,CC[N+](=O)[O-],water,0.602559586,6338,-0.22,
1287,nitrofen,[N+](=O)([O-])c1ccc(cc1)Oc2c(cc(cc2)Cl)Cl,water,3.46737E-06,15010,-5.459999938,
1287,nitrofen,Clc1c(ccc(c1)Cl)Oc2ccc(cc2)[N+](=O)[O-],water,3.46737E-06,15010,-5.459999938,
1287,nitrofural,c1(oc(cc1)[N+](=O)[O-])C=NNC(=O)N,water,0.001202264,4566720,-2.92,
1049,nitrofurantoin,O=[N+]([O-])c2oc(/C=N/N1C(=O)NC(=O)C1)cc2,water,0.00032434,5036498,-3.489,
1287,nitrofurantoin,O=[N+]([O-])c2oc(/C=N/N1C(=O)NC(=O)C1)cc2,water,0.000577431,5036498,-3.2385,
1287,nitrofurantoin,[N+](=O)([O-])c1oc(cc1)C=NN2CC(=O)NC2=O,water,0.000416869,5036498,-3.38,
1287,nitroglycerin,[N+](=O)([O-])OC(CO[N+](=O)[O-])CO[N+](=O)[O-],water,0.006025596,4354,-2.22,
1287,nitroguanidine,[N+](=O)([O-])NC(=N)N,water,0.042657952,10701,-1.37,
1287,nitromethane,[N+](=O)([O-])C,water,1.819700859,6135,0.26,
1287,nitromethane,C[N+](=O)[O-],water,1.819700859,6135,0.26,
1287,nonanal,O=CCCCCCCCC,water,0.000676083,29029,-3.17,
1287,nonanal,C(=O)CCCCCCCC,water,0.000676083,29029,-3.17,
1287,nonane,C(CCCC)CCCC,water,1.31826E-06,7849,-5.879999914,
1287,nonanebis(thioic S-acid),C(=S)(CCCCCCCC(=S)O)O,water,0.004083194,13487926,-2.389,
1287,norbormide,N7C(=O)C1C(C2C=C(C1C2=C(c3ncccc3)c4ccccc4)C(O)(c5ncccc5)c6ccccc6)C7=O,water,0.00011749,2273475,-3.930000002,
1049,norethindrone,O=C4\C=C3/[C@@H]([C@H]2CC[C@]1([C@@H](CC[C@]1(C#C)O)[C@@H]2CC3)C)CC4,water,2.20293E-05,5994,-4.657,
1287,norethindrone,O=C4\C=C3/[C@@H]([C@H]2CC[C@]1([C@@H](CC[C@]1(C#C)O)[C@@H]2CC3)C)CC4,water,1.1749E-05,5994,-4.929999983,
1287,norethindrone,O=C4\C=C3/[C@@H]([C@H]2CC[C@]1([C@@H](CC[C@]1(C#C)O)[C@@H]2CC3)C)CC4,water,2.69153E-05,5994,-4.570000001,
1287,norethisterone,OC43C2C(C1C(C(CC1)(O)C#C)(CC2)C)CCC3=CC(=O)CC4,water,2.69153E-05,14025,-4.570000001,
1287,norethisterone acetate,O(C4(C3(C(C2C(C1CCC(=O)C=C1CC2)CC3)CC4)C)C#C)C(=O)C,water,1.62181E-05,471291,-4.789999999,
1049,norfloxacin,O=C(O)\C2=C\N(c1cc(c(F)cc1C2=O)N3CCNCC3)CC,water,0.001733804,4380,-2.761,
1287,norfloxacin,O=C(O)\C2=C\N(c1cc(c(F)cc1C2=O)N3CCNCC3)CC,water,0.001099006,4380,-2.959,
1287,norfloxacin,O=C(O)\C2=C\N(c1cc(c(F)cc1C2=O)N3CCNCC3)CC,water,0.001751862,4380,-2.7565,
1287,nortriptyline,c3cc2c(/C(c1c(cccc1)CC2)=C/CCNC)cc3,water,3.1908E-05,4384,-4.496099995,
1287,nortriptyline,c3cc2c(/C(c1c(cccc1)CC2)=C/CCNC)cc3,water,9.62055E-05,4384,-4.0168,
1287,noscapine,N3(CCc1c(c(c2c(c1)OCO2)OC)C3C4OC(=O)c5c4ccc(c5OC)OC)C,water,0.000724436,4385,-3.14,
1287,NSC123398,N73C6C1(C4N(c2c1cc(c(c2)OC)OC)C(=O)CC5OCC=C(C3)C(C54)C6)CC7,water,0.008128305,191250,-2.09,
1287,NSC367787,c41c(c(cc2c1C=CC(O2)(C)C)OC)C(=O)c3c(nccc3)N4C,water,0.000108643,301233,-3.964000001,
1287,o-benzyl carbamate,NC(=O)OCc1ccccc1,water,0.446683592,11638,-0.35,
1287,o-butyl carbamate,NC(=O)OCCCC,water,0.218776162,11108,-0.66,
1287,o-chloronitrobenzene,[N+](=O)([O-])c1c(cccc1)Cl,water,0.002818383,13853953,-2.55,
1287,o-cresol,Oc1c(cccc1)C,water,0.239883292,13835772,-0.62,
1287,o-dibutylphthalate,oc(o)-c1c(c(ccc1-c(o)o)CCCC)CCCC,water,3.98107E-05,13623900,-4.400000001,
1287,o-ethyl carbamate,NC(=O)OCC,water,7.079457844,5439,0.85,
1287,o-ethylphenol,Oc1c(cccc1)CC,water,0.043651583,13865680,-1.36,
1287,o-isobutyl carbamate,NC(=O)OCC(C)C,water,0.501187234,10508,-0.3,
1287,o-methoxyphenol,O(C)c1c(cccc1)O,water,0.010964782,447,-1.96,
1287,o-methyl carbamate,NC(=O)OC,water,9.332543008,11229,0.97,
1287,o-t-butyl carbamate,NC(=O)OC(C)(C)C,water,1.258925412,70313,0.1,
1287,o;p-DDT,Clc1ccccc1C(c2ccc(Cl)cc2)C(Cl)(Cl)Cl,water,2.39883E-07,12543,-6.620000528,
1287,"O2-butyl O1-(2-ethylhexyl) benzene-1,2-dicarboxylate",c1(c(cccc1)C(=O)OCCCC)C(=O)OCC(CCCC)CC,water,5.9841E-08,6559,-7.223001158,
1287,"O3-ethyl O5-methyl 4-(2,3-dichlorophenyl)-2,6-dimethyl-1,4-dihydropyridine-3,5-dicarboxylate",C1(C(=C(NC(=C1C(=O)OC)C)C)C(=O)OCC)c2c(c(ccc2)Cl)Cl,water,2.0797E-06,3216,-5.681999935,
1287,octachlorodibenzo-p-dioxin,c31c(c(c(c(c1Cl)Cl)Cl)Cl)Oc2c(c(c(c(c2Cl)Cl)Cl)Cl)O3,water,1.62E-13,17598,-12.79048499,
1287,octachlorodibenzofuran,o1c3c(c2c1c(c(c(c2Cl)Cl)Cl)Cl)c(c(c(c3Cl)Cl)Cl)Cl,water,3E-12,35020,-11.52287875,
1287,octafluorocyclobutane,C1(C(C(C1(F)F)(F)F)(F)F)(F)F,water,0.000120226,13846040,-3.920000002,
1287,octanal,CCCCCCCC=O,water,0.004365158,441,-2.36,
1287,octane,C(CCCC)CCC,water,5.7544E-06,349,-5.240000028,
1287,octane,CCCCCCCC,water,5.7544E-06,349,-5.240000028,
1287,octanebis(thioic S-acid),C(=S)(CCCCCCC(=S)O)O,water,0.005821032,10469046,-2.235,
1287,octyl 2-acetyloxypropanoate,C(C(=O)OCCCCCCCC)(OC(=O)C)C,water,0.000409261,192892,-3.388,
1287,octyl 2-hydroxypropanoate,C(=O)(C(O)C)OCCCCCCCC,water,0.05333349,86194,-1.273,
1287,Octyl 3-bromo-4-hydroxybenzoate,CCCCCCCCOC(=O)c1ccc(c(c1)Br)O,water,3.03389E-05,28295202,-4.517999998,
1287,Octyl 3-chloro-4-hydroxybenzoate,CCCCCCCCOC(=O)c1ccc(c(c1)Cl)O,water,4.21697E-05,28295194,-4.375000004,
1287,Octyl 4-hydroxy-3-iodobenzoate,CCCCCCCCOC(=O)c1ccc(c(c1)I)O,water,2.12814E-05,28295206,-4.672000009,
1287,Octyl 4-hydroxybenzoate,c1(ccc(cc1)O)C(=O)OCCCCCCCC,water,5.99791E-05,13976,-4.221999997,
1287,octyl-4-aminobenzoate,Nc1ccc(cc1)C(=O)OCCCCCCCC,water,3.98107E-06,24806,-5.399999968,
1287,octylamine,NCCCCCCCC,water,0.001778279,7851,-2.75,
1287,octylsulfanylmethanimidamide,C(=N)(SCCCCCCCC)N,water,1.442115352,69530,0.159,
1287,ofloxacin,Fc4cc1c2N(/C=C(\C1=O)C(=O)O)C(COc2c4N3CCN(C)CC3)C,water,0.054262525,4422,-1.2655,
1287,opianic acid,O(C)c1c(ccc(c1C(=O)O)C=O)OC,water,0.012022644,61517,-1.92,
1287,opianyl,O=C1OCc2ccc(OC)c(OC)c12,water,0.013121999,61717,-1.882,
1287,opianyl,O=C1OCc2ccc(OC)c(OC)c12,water,0.012882496,61717,-1.89,