Experiment Number (900 series refer to external references),solute,solute SMILES,solvent,concentration (M),csid,solubility,
1287,malathion,O=C(OCC)C(SP(=S)(OC)OC)CC(=O)OCC,water,0.000436516,3864,-3.36,
965,mandelic acid,O=C(O)C(O)c1ccccc1,water,1.124,1253,0.05073186,
1287,maprotiline,c1ccc3c(c1)C4c2ccccc2C3(CC4)CCCNC,water,2.03517E-05,3871,-4.691399991,
1287,mebendazole,[nH]1c(nc2c1cc(cc2)C(=O)c3ccccc3)NC(=O)OC,water,0.000131826,3890,-3.88,
1287,mebendazole,[nH]1c(nc2c1ccc(c2)C(=O)c3ccccc3)NC(=O)OC,water,0.000436516,3890,-3.36,
1287,mecarbam,S(P(=S)(OCC)OCC)CC(=O)N(C)C(=O)OCC,water,0.003019952,16491,-2.52,
1287,medinoterb acetate,[N+](=O)([O-])c1c(c(cc(c1C)[N+](=O)[O-])C(C)(C)C)OC(=O)C,water,3.38844E-05,270129,-4.469999995,
1287,medrogestone,O=C4CCC3(C2C(C1C(C(CC1)(C)C(=O)C)(CC2)C)C=C(C3=C4)C)C,water,5.37032E-06,242783,-5.269999997,
1287,mefenacet,s1c(nc2c1cccc2)OCC(=O)N(C)c3ccccc3,water,1.34896E-05,82816,-4.869999994,
1049,mefenamic acid,O=C(O)c2c(Nc1cccc(c1C)C)cccc2,water,6.57658E-06,3904,-5.182,
1287,mefenamic acid,N(c1c(c(ccc1)C)C)c2c(cccc2)C(=O)O,water,0.000165959,3904,-3.779999999,
1287,mefenamic acid,O=C(O)c2c(Nc1cccc(c1C)C)cccc2,water,1.80011E-07,3904,-6.744700955,
1287,megestrol acetate,O(C4(C3(C(C2C(C1(CCC(=O)C=C1C(=C2)C)C)CC3)CC4)C)C(=O)C)C(=O)C,water,4.46684E-06,3908,-5.349999992,
969,meloxicam,Cc1cnc(s1)NC(=O)C\3=C(/O)c2ccccc2S(=O)(=O)N/3C,water,0.00101,10442740,-2.995678626,
1287,menadione,O=C1C(=CC(=O)c2c1cccc2)C,water,0.000933254,3915,-3.03,
1287,menthol,OC1C(CCC(C1)C)C(C)C,water,0.002951209,1216,-2.53,
1287,menthol,C1(C(CCC(C1)C)C(C)C)O,water,0.004570882,1216,-2.34,
1287,mepazine,S2c1c(cccc1)N(c3c2cccc3)CC4CN(CCC4)C,water,1.8197E-05,5850,-4.73999999,
1287,meperidine,N1(CCC(CC1)(c2ccccc2)C(=O)OCC)C,water,0.012882496,3918,-1.89,
1287,meprobamate,O=C(OCC(COC(=O)N)(C)CCC)N,water,0.01840772,3924,-1.735,
1287,meprobamate,O=C(OCC(COC(=O)N)(C)CCC)N,water,0.021379621,3924,-1.67,
1287,meprobamate,O=C(OCC(COC(=O)N)(C)CCC)N,water,0.015135612,3924,-1.82,
1287,metalaxyl,N(C(C)C(=O)OC)(c1c(cccc1C)C)C(=O)COC,water,0.025118864,38839,-1.6,
1287,methacrylic acid,OC(=O)C(=C)C,water,1.023292992,3951,0.01,
1287,methane,C,water,0.125892541,291,-0.9,
1287,methane,C,water,0.029512092,291,-1.53,
1287,methanol,OC,water,37.15352291,864,1.57,
1287,methapyrilene,s1c(ccc1)CN(CCN(C)C)c2ncccc2,water,0.002290868,3956,-2.64,
1287,methaqualone,N2(C(=Nc1c(cccc1)C2=O)C)c3c(cccc3)C,water,0.001202264,6055,-2.92,
969,metharbital,O=C1N(C(=O)NC(=O)C1(CC)CC)C,water,0.01009,3957,-1.996108834,
1287,metharbital,N1(C(=O)NC(=O)C(C1=O)(CC)CC)C,water,0.005888437,3957,-2.23,
1287,methazolamide,S(=O)(=O)(N)C1=NN(C(=NC(=O)C)S1)C,water,0.014791084,3958,-1.83,
1287,methazolamide,O=S(=O)(C\1=N\N(C(=N/C(=O)C)/S/1)C)N,water,0.012000518,3958,-1.9208,
1287,methionine,S(CCC(N)C(=O)O)C,water,0.380189396,853,-0.42,
1049,methocarbamol,O=C(OCC(O)COc1ccccc1OC)N,water,0.047643099,3964,-1.322,
1287,methocarbamol,NC(=O)OCC(O)COc1c(cccc1)OC,water,0.102329299,3964,-0.99,
1287,methoprene,O(C(CCCC(CC=CC(=CC(=O)OC(C)C)C)C)(C)C)C,water,6.45654E-06,4518347,-5.19000002,
1287,methoproptryne,S(C)c1nc(nc(n1)NCCCOC)NC(C)C,water,0.001174898,12730,-2.93,
1287,methotrimeprazine,S2c1c(cc(cc1)OC)N(c3c2cccc3)CC(CN(C)C)C,water,6.0256E-05,3779,-4.219999997,
1287,methoxsalen,COc1c2c(ccc(=O)o2)cc3c1occ3,water,0.000301995,3971,-3.52,
1287,methoxsalen,COc1c2c(ccc(=O)o2)cc3c1occ3,water,0.000218776,3971,-3.660000001,
1287,methoxychlor,ClC(Cl)(Cl)C(c1ccc(OC)cc1)c2ccc(OC)cc2,water,1.28825E-07,3972,-6.889999849,
1287,methoxychlor,ClC(Cl)(Cl)C(c1ccc(OC)cc1)c2ccc(OC)cc2,water,2.89068E-07,3972,-6.538999982,
1287,methoxychlor,ClC(Cl)(Cl)C(c1ccc(OC)cc1)c2ccc(OC)cc2,water,3.54813E-07,3972,-6.450000476,
1287,methyl 1-[2-(benzoyloxy)acetyl]pyrrolidine-2-carboxylate,N1(C(C(=O)OC)CCC1)C(=O)COC(=O)c2ccccc2,water,0.008241381,10441742,-2.084,
1287,methyl 2-(6-methoxynaphthalen-2-yl)propanoate,c21c(cc(cc1)OC)ccc(c2)C(C(=O)OC)C,water,1.66725E-05,461091,-4.778000003,
1287,methyl 2-(benzoyl)benzoate,c1(c(cccc1)C(=O)OC)C(=O)c2ccccc2,water,0.00020797,21170130,-3.681999999,
1287,methyl 2-chloro-3-(4-chlorophenyl)propanoate,ClC(Cc1ccc(cc1)Cl)C(=O)OC,water,0.000169824,24868,-3.770000001,
1287,methyl 2-chloro-9-hydroxyfluorene-9-carboxylate,Clc1cc3c(cc1)-c2c(cccc2)C3(O)C(=O)OC,water,6.60693E-05,16404,-4.179999999,
1287,methyl 2-cyano-5-methyl-3-oxohexanoate,C(C(=O)CC(C)C)(C(=O)OC)C#N,water,0.001883649,10468923,-2.725,
1287,methyl 3-(benzoyloxy)-8-methyl-8-azabicyclo[3.2.1]octane-2-carboxylate,N1(C2C(C(CC1CC2)OC(=O)c3ccccc3)C(=O)OC)C,water,0.005888437,2724,-2.23,
1287,methyl 3-(benzoyloxy)-8-methyl-8-azabicyclo[3.2.1]octane-2-carboxylate,C1(C3N(C(CC1OC(=O)c2ccccc2)CC3)C)C(=O)OC,water,0.008413951,2724,-2.075,
1287,"methyl 3-amino-2,5-dichlorobenzoate",Clc1c(cc(cc1C(=O)OC)Cl)N,water,0.000549541,22174,-3.26,
1287,methyl 3-bromo-4-hydroxybenzoate,c1(cc(c(cc1)O)Br)C(=O)OC,water,0.000683912,3965598,-3.165,
1287,Methyl 3-chloro-4-hydroxybenzoate,c1(cc(c(cc1)O)Cl)C(=O)OC,water,0.001339677,69985,-2.873,
1287,"methyl 3,5-dihydroxy-4-methoxybenzoate",c1(cc(c(c(c1)O)OC)O)C(=O)OC,water,0.025234808,4477962,-1.598,
1287,"Methyl 3,9-dimethyl-7-oxo-7H-furo[3,2-g]chromene-6-carboxylate",Cc1coc2c1cc3cc(c(=O)oc3c2C)C(=O)OC,water,1.26765E-05,28295211,-4.896999988,
1157,methyl 4-(dimethylamino)benzoate,O=C(OC)c1ccc(N(C)C)cc1,water,0.007538703,64155,-2.122703358,
1287,methyl 4-(dimethylamino)benzoate,O=C(OC)c1ccc(N(C)C)cc1,water,0.000893305,64155,-3.049,
1157,methyl 4-acetamidobenzoate,O=C(Nc1ccc(cc1)C(=O)OC)C,water,0.014975695,502245,-1.824612999,
1287,methyl 4-hydroxy-3-iodobenzoate,c1(cc(c(cc1)O)I)C(=O)OC,water,0.000485289,9521403,-3.314,
1157,methyl 4-methoxybenzoate,O=C(OC)c1ccc(OC)cc1,water,0.038441045,21108577,-1.415204813,
1287,methyl 4-methoxybenzoate,O=C(OC)c1ccc(OC)cc1,water,0.003837072,21108577,-2.416,
1287,methyl 4-methoxybenzoate,O=C(OC)c1ccc(OC)cc1,water,0.003890451,21108577,-2.41,
1287,methyl 4-nitrobenzoate,c1(ccc(cc1)[N+](=O)[O-])C(=O)OC,water,0.000922571,11586,-3.035,
1287,"methyl 5-[2-(2,5-dimethoxyphenyl)ethyl]-2-hydroxybenzoate",c1(c(ccc(c1)CCc2c(ccc(c2)OC)OC)O)C(=O)OC,water,4.1115E-07,7994112,-6.385999705,
1287,"methyl 5,9-dimethyl-7-oxopyrano[3,2-f][1]benzoxole-2-carboxylate",c31c(cc2c(c1C)OC(=O)C=C2C)cc(o3)C(=O)OC,water,6.9024E-06,131244,-5.161000002,
1287,methyl acetate,O(C)C(=O)C,water,3.311311215,6335,0.52,
1287,methyl acetate,C(=O)(C)OC,water,0.301995172,6335,-0.52,
1287,methyl acrylate,O(C)C(=O)C=C,water,0.602559586,7022,-0.22,
1287,methyl acrylate,C(=O)(C=C)OC,water,0.602559586,7022,-0.22,
1287,methyl benzoate,O(C)C(=O)c1ccccc1,water,0.014125375,6883,-1.85,
1287,methyl benzoate,C(=O)(c1ccccc1)OC,water,0.014125375,6883,-1.85,
1287,methyl bromide,CBr,water,0.134896288,6083,-0.87,
1287,methyl butyl ether,O(CCCC)C,water,0.102329299,11833,-0.99,
1287,methyl butyrate,O(CCC)C(=O)CC,water,0.151356125,7515,-0.82,
1287,methyl butyrate,O(C)C(=O)CCC,water,0.151356125,11680,-0.82,
1287,methyl butyrate,C(=O)(CCC)OC,water,0.151356125,11680,-0.82,
1287,methyl caprate,O(C)C(=O)CCCCCCCCC,water,2.34423E-05,7759,-4.630000003,
1287,methyl capronate,O(C)C(=O)CCCCC,water,0.01,7536,-2,
1287,methyl caprylate,O(C)C(=O)CCCCCCC,water,0.00040738,7800,-3.39,
1287,methyl caprylate,C(=O)(CCCCCCC)OC,water,0.00040738,7800,-3.39,
1287,methyl chloride,CCl,water,0.131825674,6087,-0.88,
1287,methyl formate,O(C)C=O,water,3.801893963,7577,0.58,
1287,methyl formate,C(=O)OC,water,3.801893963,7577,0.58,
1287,methyl gallate,O(C)C(=O)c1cc(c(c(c1)O)O)O,water,0.057543994,7150,-1.24,
1287,methyl hydrazine,N(N)C,water,21.87761624,5837,1.34,
1287,methyl isopropyl ether,O(C(C)C)C,water,0.87096359,11228,-0.06,
1287,methyl isothiocyanate,CN=C=S,water,0.1,10694,-1,
1287,methyl laurate,O(C)C(=O)CCCCCCCCCCC,water,2.04174E-05,7847,-4.69000001,
1287,methyl methacrylate,O(C)C(=O)C(=C)C,water,0.158489319,6406,-0.8,
1287,methyl methacrylate,C(=O)(C(=C)C)OC,water,0.158489319,6406,-0.8,
1287,Methyl N-(dichloroacetyl)serinate,COC(=O)C(CO)NC(=O)C(Cl)Cl,water,0.868960429,28295035,-0.061,
1287,Methyl N-(dichloroacetyl)threoninate,CC(C(C(=O)OC)NC(=O)C(Cl)Cl)O,water,0.241546083,28295044,-0.617,
1287,Methyl N-[2-({[(2-methyl-2-propanyl)oxy]carbonyl}amino)-4-pentynoyl]glycinate,CC(C)(C)OC(=O)NC(CC#C)C(=O)NCC(=O)OC,water,0.035156044,28295065,-1.454,
1287,methyl nicotinate,n1cc(ccc1)C(=O)OC,water,0.34673685,21111785,-0.46,
1287,Methyl nonanoate,O(C)C(=O)CCCCCCCC,water,0.000416869,14846,-3.38,
1157,methyl p-acetoxybenzoate,O=C(Oc1ccc(cc1)C(=O)OC)C,water,0.003880724,502855,-2.41108719,
1157,methyl p-aminobenzoate,O=C(OC)c1ccc(N)cc1,water,0.100173425,11585,-0.999247476,
1287,methyl p-aminobenzoate,O=C(OC)c1ccc(N)cc1,water,0.025703958,11585,-1.59,
1287,methyl propionate,O(C)C(=O)CC,water,0.72443596,10653,-0.14,
1287,methyl propionate,C(=O)(CC)OC,water,0.72443596,10653,-0.14,
1287,methyl propyl ether,O(CCC)C,water,0.407380278,10709,-0.39,
1287,methyl salicylate,O(C)C(=O)c1c(cccc1)O,water,0.004570882,13848808,-2.34,
1287,methyl t-butyl ether,O(C(C)(C)C)C,water,0.575439937,14672,-0.24,
1287,methyl valerate,O(C)C(=O)CCCC,water,0.043651583,11706,-1.36,
1287,methyl valerate,C(=O)(CCCC)OC,water,0.043651583,11706,-1.36,
1287,methylcyclohexane,C1(CCCCC1)C,water,0.000141254,7674,-3.850000001,
1287,methylcyclohexene,CC1=CCCCC1,water,0.000537032,11086,-3.27,
1287,methylcyclopentane,C1(CCCC1)C,water,0.000501187,7024,-3.3,
1287,methyldymron,N(C)(c1ccccc1)C(=O)NC(C)(C)c2ccccc2,water,0.000446684,83352,-3.35,
1049,methylparaben,COC(=O)c1ccc(cc1)O,water,0.008770008,7176,-2.057,
1157,methylparaben,COC(=O)c1ccc(cc1)O,water,0.009538904,7176,-2.020501531,
1287,methylparaben,COC(=O)c1ccc(cc1)O,water,0.016595869,7176,-1.78,
1287,methylparaben,COC(=O)c1ccc(cc1)O,water,0.031996318,7176,-1.4949,
1287,methyltestosterone,O=C4\C=C3/[C@]([C@H]2CC[C@]1([C@@H](CC[C@@]1(O)C)[C@@H]2CC3)C)(C)CC4,water,0.000107152,5788,-3.969999998,
1287,methyltestosterone,O=C4\C=C3/[C@]([C@H]2CC[C@]1([C@@H](CC[C@@]1(O)C)[C@@H]2CC3)C)(C)CC4,water,0.000102329,5788,-3.990000001,
1287,methyltestosterone acetate,O(C4(C3(C(C2C(C1(CCC(=O)C=C1CC2)C)CC3)CC4)C)C)C(=O)C,water,5.24808E-06,3879980,-5.279999967,
1287,methylthiouracil,S=C1NC(=CC(=O)N1)C,water,0.003715352,580871,-2.43,
1287,methylthiouracil,Sc1nc(cc(n1)C)O,water,0.003715352,580871,-2.43,
1287,metiazinic acid,S2c1c(cc(cc1)CC(=O)O)N(c3c2cccc3)C,water,0.000114815,4020,-3.940000001,
1287,metoclopramide,Clc1cc(c(OC)cc1N)C(=O)NCCN(CC)CC,water,0.000660693,4024,-3.18,
1287,metoclopramide,Clc1cc(c(OC)cc1N)C(=O)NCCN(CC)CC,water,0.000254449,4024,-3.594399999,
1287,metoclopramide,Clc1cc(c(OC)cc1N)C(=O)NCCN(CC)CC,water,0.000271957,4024,-3.565499999,
1287,metolcarb,N(C)C(=O)Oc1ccccc1,water,0.015848932,15226,-1.8,
1287,metribuzin,S(C)C1=NN=C(C(=O)N1N)C(C)(C)C,water,0.005623413,28287,-2.25,
1049,metronidazole,[O-][N+](=O)c1cnc(n1CCO)C,water,0.073960528,4029,-1.131,
1287,metronidazole,[O-][N+](=O)c1cnc(n1CCO)C,water,0.061376201,4029,-1.212,
1287,metronidazole,[N+](=O)([O-])c1n(c(nc1)C)CCO,water,0.054954087,4029,-1.26,
1287,metronidazole,[O-][N+](=O)c1cnc(n1CCO)C,water,0.060062029,4029,-1.2214,
1287,miconazole,c1cc(c(cc1Cl)Cl)COC(Cn2ccnc2)c3ccc(cc3Cl)Cl,water,0.000355631,4044,-3.448999999,
1287,miconazole,c1cc(c(cc1Cl)Cl)COC(Cn2ccnc2)c3ccc(cc3Cl)Cl,water,8.54083E-06,4044,-5.068500024,
1049,minoxidil,N\C1=C\C(=N/C(=N)N1O)N2CCCCC2,water,0.011534533,11439687,-1.938,
1204,minoxidil,N\C1=C\C(=N/C(=N)N1O)N2CCCCC2,water,0.013014269,11439687,-1.88558021,
1287,minoxidil,[n+]1(c(nc(cc1N)N2CCCCC2)N)[O-],water,0.01023293,10438564,-1.99,
1287,monotropitoside,O1C(C(C(C(C1COC2OCC(C(C2O)O)O)O)O)O)Oc3c(cccc3)C(=O)OC,water,0.181970086,9858,-0.74,
1041,monuron,Clc1ccc(NC(=O)N(C)C)cc1,water,0.001157815,8470,-2.936360733,
1287,monuron,Clc1ccc(NC(=O)N(C)C)cc1,water,0.00128825,8470,-2.89,
1287,morin,O1C(=C(C(=O)c2c1cc(cc2O)O)O)c3c(cc(cc3)O)O,water,0.000831764,4444989,-3.08,
1287,"Morphinan-6-ol 4,5-epoxy-3-methoxy-17-methyl- acetate (ester) (5.alpha.,6.alpha.)-",C532c1c4c(ccc1CC(C2CCC(C3O4)OC(=O)C)N(CC5)C)OC,water,0.017823788,454370,-1.749,
1287,"Morphinan-6-ol 7,8-didehydro-4,5-epoxy-3-ethoxy-17-methyl- (5.alpha.6.alpha.)-",C532c1c4c(ccc1CC(C2C=CC(C3O4)O)N(CC5)C)OCC,water,0.151356125,3187,-0.82,
1287,"Morphinan-6-ol 7,8-didehydro-4,5-epoxy-3-methoxy-17-methyl- acetate (ester) (5.alpha.,6.alpha.)-",C532c1c4c(ccc1CC(C2C=CC(C3O4)OC(=O)C)N(CC5)C)OC,water,0.050003453,368438,-1.301,
1287,morphine,CN1CC[C@]23c4c5ccc(c4O[C@H]2[C@H](C=C[C@H]3[C@H]1C5)O)O,water,0.000790679,4450907,-3.102,
1287,morphine,CN1CC[C@]23c4c5ccc(c4O[C@H]2[C@H](C=C[C@H]3[C@H]1C5)O)O,water,0.000524807,4450907,-3.28,
1287,morpholine,N1CCOCC1,water,11.48153621,13837537,1.06,
1287,myristyl alcohol,OCCCCCCCCCCCCCC,water,8.91251E-07,7917,-6.04999997,
1287,myristyl alcohol,C(CCCCCCCCCCCCC)O,water,6.76083E-07,7917,-6.169999984,
1287,N-(1-amino-2-methyl-1-oxopropan-2-yl)benzamide,C(NC(=O)c1ccccc1)(C(=O)N)(C)C,water,0.024266101,225588,-1.615,
1287,N-(2-Bromo-4-methylpentanoyl)alanylalanine,CC(C)CC(C(=O)NC(C)C(=O)NC(C)C(=O)O)Br,water,0.037153523,28295063,-1.43,
1287,N-(2-Chlorophenyl)acetamide,Clc1c(cccc1)NC(=O)C,water,0.039810717,10322,-1.4,
1287,N-(2-fluoro-4-methylphenyl)acetamide,c1(c(cc(cc1)C)F)NC(=O)C,water,0.018197009,9312621,-1.74,
1287,N-(2-hydroxyoxolan-3-yl)-4-methyl-2-(phenylcarbamothioylamino)pentanamide,C(C(=O)NC1C(OCC1)O)(NC(=S)Nc2ccccc2)CC(C)C,water,0.004265795,16086973,-2.37,
1287,N-(2-Pyrimidinyl)-2-pyrazinecarboxamide,c1cnc(nc1)NC(=O)c2cnccn2,water,0.496592321,28295036,-0.304,
1287,"N-(2-sulfamoyl-1,3-benzothiazol-6-yl)acetamide",S(=O)(=O)(c1sc2c(n1)ccc(c2)NC(=O)C)N,water,0.000693426,10439768,-3.159,
1287,"N-(2,4-difluorophenyl)-2-[3-(trifluoromethyl)phenoxy]pyridine-3-carboxamide",c1(c(cccn1)C(=O)Nc2c(cc(cc2)F)F)Oc3cc(ccc3)C(F)(F)F,water,1.26765E-07,82834,-6.897000639,
1287,"N-(2,6-Dimethylphenyl)-2,2-diethylhydrazinecarboxamide",CCN(CC)NC(=O)Nc1c(cccc1C)C,water,0.08090959,28295053,-1.092,
1287,"N-(3-bromophenyl)-1-methylpyrazolo[4,5-g]quinazolin-5-amine",c31c(cc2c(c1)cnn2C)ncnc3Nc4cc(ccc4)Br,water,0.00033037,4485445,-3.481,
1287,"N-(3-bromophenyl)-1H-pyrimido[5,6-f]indazol-5-amine",c31c(cc2c(c1)cn[nH]2)ncnc3Nc4cc(ccc4)Br,water,0.000109901,4485407,-3.959,
1287,"N-(3-bromophenyl)-7-(methoxymethyl)-7,8-dihydro-[1,4]dioxino[3,2-g]quinazolin-4-amine",c31c(cc2c(c1)OC(CO2)COC)ncnc3Nc4cc(ccc4)Br,water,0.000599791,8376596,-3.222,
1287,"N-(3-bromophenyl)-8-methylpyrrolo[3,2-g]quinazolin-4-amine",c31c(cc2c(c1)ccn2C)ncnc3Nc4cc(ccc4)Br,water,0.000489779,4485450,-3.31,
1287,"N-(3-bromophenyl)-8H-pyrrolo[3,2-g]quinazolin-4-amine",c31c(cc2c(c1)cc[nH]2)ncnc3Nc4cc(ccc4)Br,water,0.001499685,4485408,-2.824,
1287,"N-(3-iodophenyl)-7-(methoxymethyl)-7,8-dihydro-[1,4]dioxino[3,2-g]quinazolin-4-amine",c31c(cc2c(c1)OC(CO2)COC)ncnc3Nc4cc(ccc4)I,water,0.000299916,9114521,-3.523,
1287,N-(3-oxo-1H-2-benzofuran-5-yl)acetamide,c21c(ccc(c1)NC(=O)C)COC2=O,water,0.002511886,788616,-2.6,
1287,N-(4-bromophenyl)acetamide,Brc1ccc(cc1)NC(=O)C,water,0.000831764,7399,-3.08,
1287,N-(4-Chloro-2-methylphenyl)acetamide,c1(c(cc(cc1)Cl)C)NC(=O)C,water,0.004897788,71212,-2.31,
1287,N-(4-chlorophenyl)-2-dimethoxyphosphinothioylsulfanyl-N-propan-2-ylacetamide,Clc1ccc(cc1)N(C(C)C)C(=O)CSP(=S)(OC)OC,water,3.71535E-05,82790,-4.429999999,
1287,N-(4-Chlorophenyl)-N-hydroxy-2-naphthamide,c1ccc2cc(ccc2c1)C(=O)N(c3ccc(cc3)Cl)O,water,3.35738E-06,28295216,-5.474000018,
1287,N-(4-Chlorophenyl)-N-hydroxy-4-methylbenzamide,Cc1ccc(cc1)C(=O)N(c2ccc(cc2)Cl)O,water,3.81944E-05,28295197,-4.418000001,
1287,N-(4-Chlorophenyl)acetamide,Clc1ccc(cc1)NC(=O)C,water,0.00144544,10411,-2.84,
1287,N-(4-fluoro-2-methylphenyl)acetamide,c1(c(cc(cc1)F)C)NC(=O)C,water,0.043752211,2019255,-1.359,
1287,N-(4-fluorophenyl)acetamide,Fc1ccc(cc1)NC(=O)C,water,0.016595869,9225,-1.78,
1287,N-(4-Iodophenyl)acetamide,Ic1ccc(cc1)NC(=O)C,water,0.000562341,11648,-3.25,
1287,N-(4-methylpyrimidin-2-yl)pyrazine-2-carboxamide,c1(nc(ccn1)C)NC(=O)c2nccnc2,water,0.185780446,10469276,-0.731,
1287,N-(5-chloro-2-nitrophenyl)acetamide,c1(c(ccc(c1)Cl)[N+](=O)[O-])NC(=O)C,water,0.103514217,194765,-0.985,
1287,N-(6-methoxypyridin-3-yl)cyclopropanecarboxamide,C2(C(=O)Nc1cnc(cc1)OC)CC2,water,0.007277798,77851,-2.138,
1287,N-(6-methoxyquinolin-8-yl)pyridine-3-carboxamide,c1(c2c(cc(c1)OC)cccn2)NC(=O)c3cnccc3,water,3.58096E-05,10468886,-4.445999996,
1287,N-(8-ethoxyquinolin-5-yl)acetamide,c21c(c(ccc1NC(=O)C)OCC)nccc2,water,0.03040885,10469286,-1.517,
1287,N-(9H-Fluoren-2-yl)acetamide,c-21c(cc(cc1)NC(=O)C)Cc3c-2cccc3,water,5.82103E-05,5686,-4.234999998,
1287,"N-(Butoxymethyl)-2-chloro-N-(2,6-diethylphenyl)acetamide",ClCC(=O)N(COCCCC)c1c(cccc1CC)CC,water,6.45654E-05,29376,-4.189999999,
1287,"N-(Butoxymethyl)-2-chloro-N-(2,6-diethylphenyl)acetamide",c1(c(cccc1CC)CC)N(C(=O)CCl)COCCCC,water,6.4121E-05,29376,-4.192999998,
1287,N-(Butylsulfonyl)-1-butanesulfonamide,CCCCS(=O)(=O)NS(=O)(=O)CCCC,water,0.17538805,28295047,-0.756,
1287,N-(diethylsulfamoyl)-N-ethylethanamine,S(=O)(=O)(N(CC)CC)N(CC)CC,water,0.071944898,121395,-1.143,
1287,N-(Methylsulfonyl)cyclohexanesulfonamide,CS(=O)(=O)NS(=O)(=O)C1CCCCC1,water,0.467735141,28295037,-0.33,
1287,N-(N-Methylcarbamimidoyl)-2-naphthalenesulfonamide,CNC(=N)NS(=O)(=O)c1ccc2ccccc2c1,water,0.000794328,28295146,-3.1,
1287,N-(phenylcarbamoyl)pyridine-3-carboxamide,C(=O)(c1cnccc1)NC(=O)Nc2ccccc2,water,0.000414,10468963,-3.383,
1287,"N-[(3,5-dichloro-2,4-difluorophenyl)carbamoyl]-2,6-difluorobenzamide",Fc1c(c(c(cc1Cl)NC(=O)NC(=O)c2c(cccc2F)F)F)Cl,water,5.2481E-08,82833,-7.279997898,
1287,"N-[(3,5-dichloro-2,4-difluorophenyl)carbamoyl]-2,6-difluorobenzamide",c1(c(cccc1F)F)C(=O)NC(=O)Nc2c(c(c(c(c2)Cl)F)Cl)F,water,2.3605E-08,82833,-7.626995995,
1287,"N-[(4-Aminophenyl)sulfinyl]-N-(3,4-dimethyl-1,2-oxazol-5-yl)acetamide",Cc1c(noc1N(C(=O)C)S(=O)c2ccc(cc2)N)C,water,0.00025704,28295170,-3.59,
1287,"N-[(4-chlorophenyl)carbamoyl]-2,6-difluorobenzamide",Fc1c(c(ccc1)F)C(=O)NC(=O)Nc2ccc(cc2)Cl,water,9.54993E-07,34065,-6.019999812,
1287,"N-[(4-chlorophenyl)carbamoyl]-2,6-difluorobenzamide",c1(c(cccc1F)F)C(=O)NC(=O)Nc2ccc(cc2)Cl,water,2.86418E-07,34065,-6.542999692,
1287,"N-[(4-methoxyphenyl)methyl]-N',N'-dimethyl-N-pyrimidin-2-ylethane-1,2-diamine",N(c1ncccn1)(Cc2ccc(cc2)OC)CCN(C)C,water,0.001028016,5258,-2.988,
1287,N-[2-(1-oxohexylamino)ethyl]hexanamide,C(=O)(NCCNC(=O)CCCCC)CCCCC,water,0.00077983,246608,-3.108,
1287,N-[2-(5-methoxy-1H-indol-3-yl)ethyl]acetamide,c21c([nH]cc1CCNC(=O)C)ccc(c2)OC,water,8.05378E-06,872,-5.094000022,
1287,N-[2-(butanoylamino)ethyl]butanamide,C(=O)(NCCNC(=O)CCC)CCC,water,0.238781128,246604,-0.622,
1287,N-[2-(pentanoylamino)ethyl]pentanamide,C(=O)(NCCNC(=O)CCCC)CCCC,water,0.015310875,249848,-1.815,
1287,N-[2-(propanoylamino)ethyl]propanamide,C(=O)(NCCNC(=O)CC)CC,water,2.371373706,2583001,0.375,
1287,"N-[2,2,2-trichloro-1-[4-(2,2,2-trichloro-1-formamidoethyl)piperazin-1-yl]ethyl]formamide",ClC(Cl)(Cl)C(N1CCN(CC1)C(NC=O)C(Cl)(Cl)Cl)NC=O,water,6.45654E-05,30966,-4.189999999,
1287,"N-[2,4-dimethyl-5-(trifluoromethylsulfonylamino)phenyl]acetamide",FC(F)(F)S(=O)(=O)Nc1c(cc(c(c1)NC(=O)C)C)C,water,0.00057544,37346,-3.24,
1287,"N-[4-(4-aminophenyl)sulfonylphenyl]ethane-1,2-diamine",S(=O)(=O)(c1ccc(cc1)NCCN)c2ccc(cc2)N,water,0.004456562,427040,-2.351,
1287,N-[4-(acridin-9-ylamino)-3-methylaminophenyl]methanesulfonamide,c1(c3c(nc2c1cccc2)cccc3)Nc4c(cc(cc4)NS(=O)(=O)C)NC,water,0.001142878,132336,-2.942,
1287,N-[4-(pyridin-2-ylsulfamoyl)phenyl]acetamide,S(=O)(=O)(c1ccc(cc1)NC(=O)C)Nc2ncccc2,water,0.000192309,52841,-3.716,
1287,"N-[4-[(4-methyl-1,3-thiazol-2-yl)sulfamoyl]phenyl]acetamide",c1(ccc(cc1)NC(=O)C)S(=O)(=O)Nc2nc(cs2)C,water,7.06318E-05,10469137,-4.151000003,
1287,N-[4-chloro-2-(trifluoromethyl)phenyl]-1-imidazol-1-yl-2-propoxyethanimine,c1(c(ccc(c1)Cl)N=C(n2cncc2)COCCC)C(F)(F)F,water,3.6141E-05,10442730,-4.442000003,
1287,N-[4-nitro-2-(phenoxy)phenyl]methanesulfonamide,c1(c(ccc(c1)[N+](=O)[O-])NS(=O)(=O)C)Oc2ccccc2,water,3.2434E-05,4339,-4.488999996,
1287,N-{(E)-[5-(Hydroxymethyl)-2-methyl-3-oxo-4(3H)-pyridinylidene]methyl}-L-valine,c1(c(c(ncc1CO)C)O)C=NC(C(C)C)C(=O)O,water,0.024945947,4575241,-1.603,