Experiment Number (900 series refer to external references),solute,solute SMILES,solvent,concentration (M),csid,solubility,
1287,diisopropylketone,C(=O)(C(C)C)C(C)C,water,0.050118723,10797,-1.3,
1287,diisopropylsulfide,S(C(C)C)C(C)C,water,0.005754399,11761,-2.24,
1287,diltiazem,O=C2N(c3c(S[C@@H](c1ccc(OC)cc1)[C@H]2OC(=O)C)cccc3)CCN(C)C,water,0.000693585,35850,-3.1589,
1287,dimetan,N(C)(C)C(=O)OC1=CC(=O)CC(C1)(C)C,water,0.141253754,28942,-0.85,
1287,dimethirimol,N(C)(C)c1nc(c(c(n1)C)CCCC)O,water,0.005754399,20014,-2.24,
1287,dimethoate,S(P(=S)(OC)OC)CC(=O)NC,water,0.181970086,2973,-0.74,
1287,"dimethoxy-sulfanylidene-(2,4,5-trichlorophenoxy)phosphorane",Clc1c(cc(c(c1)Cl)OP(=S)(OC)OC)Cl,water,1.90546E-06,8939,-5.719999936,
1287,"dimethoxy-sulfanylidene-(3,5,6-trichloropyridin-2-yl)oxyphosphorane",Clc1nc(c(cc1Cl)Cl)OP(=S)(OC)OC,water,1.51356E-05,20493,-4.820000014,
1287,dimethoxymethane,O(COC)C,water,3.01995172,13837190,0.48,
1287,dimethoxymethane,C(OC)OC,water,3.01995172,13837190,0.48,
1287,dimethoxyphosphinothioyldisulfanyl-dimethoxy-sulfanylidenephosphorane,P(=S)(SSP(=S)(OC)OC)(OC)OC,water,4.00867E-05,72292,-4.396999997,
1287,dimethyl carbate,O(C)C(=O)C1C2CC(C1C(=O)OC)C=C2,water,0.063095734,35099,-1.2,
1287,Dimethyl decanedioate,C(=O)(CCCCCCCCC(=O)OC)OC,water,0.000521195,7541,-3.283,
976,dimethyl fumarate,O=C(OC)\C=C\C(=O)OC,water,0.005,553171,-2.301029996,
1287,dimethyl phthalate,O=C(OC)c1ccccc1C(=O)OC,water,0.011220185,13837329,-1.95,
1287,dimethyl phthalate,O=C(OC)c1ccccc1C(=O)OC,water,0.021877616,13837329,-1.66,
1325,dimethyl phthalate,COC(=O)C1=CC=CC=C1C(=O)OC,water,0.026915348,13837329,-1.57,
1287,dimethyl sulfide,S(C)C,water,0.354813389,1039,-0.45,
1287,dimethyl terephthalate,O=C(OC)c1ccc(cc1)C(=O)OC,water,0.000279898,13863300,-3.553,
1287,dimethyl terephthalate,O=C(OC)c1ccc(cc1)C(=O)OC,water,9.77237E-05,13863300,-4.01,
1287,dimethyldisulfide,S(SC)C,water,0.036307805,11731,-1.44,
1287,dinitramine,[N+](=O)([O-])c1c(c(cc(c1N)C(F)(F)F)[N+](=O)[O-])N(CC)CC,water,3.38844E-06,31718,-5.469999944,
1325,dinonyl phthalate,CCCCCCCCCOC(=O)C1=CC=CC=C1C(=O)OCCCCCCCCC,water,7.4131E-10,6529,-9.130000141,
1287,dinoseb,[N+](=O)([O-])c1c(c(cc(c1)[N+](=O)[O-])C(CC)C)O,water,0.000416869,6684,-3.38,
1287,dioctyl phthalate,O(CCCCCCCC)C(=O)c1c(cccc1)C(=O)OCCCCCCCC,water,7.76247E-06,8043,-5.110000009,
1325,dioctyl phthalate,CCCCCCCCOC(=O)C1=CC=CC=C1C(=O)OCCCCCCCC,water,6.30957E-09,8043,-8.200000031,
1049,diosgenin,OC2C/C1=C/CC5C(C1(C)CC2)CCC6(C4C(OC3(OCC(CC3)C)C4C)CC56)C,water,8.41395E-06,204155,-5.075,
1287,diosgenin,O2C1(OCC(CC1)C)C(C3C2CC4C3(CCC5C4CC=C6C5(CCC(C6)O)C)C)C,water,4.7863E-08,204155,-7.320000084,
1287,dioxacarb,N(C)C(=O)Oc1c(cccc1)C2OCCO2,water,0.026915348,21901,-1.57,
1287,"dipentyl benzene-1,2-dicarboxylate",c1(c(cccc1)C(=O)OCCCCC)C(=O)OCCCCC,water,0.000326588,8243,-3.486,
1287,diphenamid,N(C)(C)C(=O)C(c1ccccc1)c2ccccc2,water,0.001047129,13133,-2.98,
1287,diphenhydramine,O(CCN(C)C)C(c1ccccc1)c2ccccc2,water,0.001133183,2989,-2.9457,
1287,diphenic acid,OC(=O)c1c(cccc1)-c2c(cccc2)C(=O)O,water,0.005248075,9795,-2.28,
1287,diphenyl ether,O(c1ccccc1)c2ccccc2,water,0.000109648,7302,-3.959999998,
1287,diphenyl ether,O(c1ccccc1)c2ccccc2,water,0.000123027,7302,-3.91,
1043,diphenyl sulfone,O=S(=O)(c1ccccc1)c2ccccc2,water,0.0002271,29117,-3.643782866,
907,diphenylacetic acid,O=C(O)C(c1ccccc1)c2ccccc2,water,0.001,8030,-3.22184875,
1287,diphenylacetic acid,OC(=O)C(c1ccccc1)c2ccccc2,water,0.00060256,8030,-3.22,
1287,diphenylamine,N(c1ccccc1)c2ccccc2,water,0.00030903,11003,-3.51,
1287,diphenylhydantoin,O=C2N(C(=O)N(c1ccccc1)C2)c3ccccc3,water,0.000139284,538653,-3.856100001,
1287,diphenylmethane,C(c1ccccc1)c2ccccc2,water,8.31764E-05,7299,-4.080000001,
1287,diphenylmethane,C(c1ccccc1)c2ccccc2,water,6.76083E-05,7299,-4.169999997,
1287,diphenylnitrosamine,N(N=O)(c1ccccc1)c2ccccc2,water,0.000177828,6577,-3.75,
1287,diphenylolpropane,Oc1ccc(cc1)C(C)(C)c2ccc(cc2)O,water,0.001513561,6371,-2.82,
1287,"dipropyl benzene-1,2-dicarboxylate",c1(c(cccc1)C(=O)OCCC)C(=O)OCCC,water,0.000151705,8241,-3.818999999,
1287,dipropyl ether,O(CCC)CCC,water,0.023988329,7823,-1.62,
1325,dipropyl phthalate,CCCOC(=O)C1=CC=CC=C1C(=O)OCCC,water,0.00030903,8241,-3.51,
1287,dipropylamine,N(CCC)CCC,water,0.34673685,8562,-0.46,
1049,disopyramide,O=C(N)C(c1ncccc1)(c2ccccc2)CCN(C(C)C)C(C)C,water,0.017782794,3002,-1.75,
1049,disulfiram,CCN(CC)C(=S)SSC(=S)N(CC)CC,water,2.45471E-05,3005,-4.61,
1287,disulfiram,CCN(CC)C(=S)SSC(=S)N(CC)CC,water,1.38038E-05,3005,-4.859999989,
1287,disulfoton,S(P(=S)(OCC)OCC)CCSCC,water,5.88844E-05,3006,-4.229999997,
1287,ditalimfos,S=P(N2C(=O)c1c(cccc1)C2=O)(OCC)OCC,water,0.000446684,19939,-3.35,
1287,"dithiane-3,6-dicarboxylic acid",C1(C(=O)O)SSC(CC1)C(=O)O,water,0.01164126,213265,-1.934,
1287,ditolyl ether,O(c1cc(ccc1)C)c2cc(ccc2)C,water,1.41254E-05,80842,-4.850000014,
1325,diundecyl phthalate,CCCCCCCCCCCOC(=O)C1=CC=CC=C1C(=O)OCCCCCCCCCCC,water,9.333E-12,18193,-11.02997873,
1287,diuril,Clc1c(cc2c(c1)N=CNS2(=O)=O)S(=O)(=O)N,water,0.000891251,2619,-3.05,
1041,diuron,Clc1ccc(NC(=O)N(C)C)cc1Cl,water,0.000181021,3008,-3.74227055,
1049,diuron,Clc1ccc(NC(=O)N(C)C)cc1Cl,water,0.00011246,3008,-3.949,
1287,diuron,Clc1c(ccc(c1)NC(=O)N(C)C)Cl,water,0.000158489,3008,-3.800000001,
1287,"DL-1,2-diphenylethanol",OC(Cc1ccccc1)c2ccccc2,water,0.003019952,84992,-2.52,
1049,DL-camphor,O=C1CC2CCC1(C)C2(C)C,water,0.009885531,2441,-2.005,
1287,DL-camphor,O=C1CC2CCC1(C)C2(C)C,water,0.01023293,2441,-1.99,
1287,DL-camphor,O=C1CC2CCC1(C)C2(C)C,water,0.013182567,2441,-1.88,
1287,dl-tropic acid,OCC(c1ccccc1)C(=O)O,water,0.117489755,10274,-0.93,
1287,DNOC,[N+](=O)([O-])c1c(c(cc(c1)[N+](=O)[O-])C)O,water,0.034673685,10343,-1.46,
1287,dodecanol,OCCCCCCCCCCCC,water,2.13796E-05,7901,-4.669999998,
1287,dorzolamide,O=S(=O)(c1sc2c(c1)[C@@H](NCC)C[C@H](C)S2(=O)=O)N,water,0.05999292,4447604,-1.2219,
1287,doxepin,N(CCC=C2c1c(cccc1)OCc3c2cccc3)(C)C,water,0.000398107,580850,-3.4,
1287,doxycycline,N(C4C3C(C2C(c1c(c(ccc1)O)C(=O)C2=C(C3(C(=O)C(=C4O)C(=O)N)O)O)C)O)(C)C,water,0.001348963,10444405,-2.87,
1287,dulcin,N(c1ccc(cc1)OCC)C(=O)N,water,0.00676083,8663,-2.17,
1143,durene,c1c(c(cc(c1C)C)C)C,water,2.5704E-05,6999,-4.59,
1287,durene,c1c(c(cc(c1C)C)C)C,water,2.5704E-05,6999,-4.589999997,
1287,dyphylline,n1(cnc2c1C(=O)N(C(=O)N2C)C)CC(O)CO,water,0.676082975,3070,-0.17,
1287,emerin,O=S(=O)(/N=C(\N)N)c1ccc(N)cc1,water,0.01023293,5133,-1.99,
1287,emerin,O=S(=O)(/N=C(\N)N)c1ccc(N)cc1,water,0.010471285,5133,-1.98,
1287,enalapril,O=C(O)[C@H]2N(C(=O)[C@@H](N[C@H](C(=O)OCC)CCc1ccccc1)C)CCC2,water,0.066404881,4534998,-1.1778,
1287,endothall,O1C2C(C(C1CC2)C(=O)O)C(=O)O,water,0.537031796,3112,-0.27,
1287,endrine,Cl\C1=C(/Cl)[C@@]2(Cl)[C@H]3[C@@H]4C[C@H]([C@H]3[C@]1(Cl)C2(Cl)Cl)[C@@H]5O[C@H]45,water,5.12861E-07,839545,-6.290000325,
1287,endrine,Cl\C1=C(/Cl)[C@@]2(Cl)[C@H]3[C@@H]4C[C@H]([C@H]3[C@]1(Cl)C2(Cl)Cl)[C@@H]5O[C@H]45,water,4.46684E-07,839545,-6.349999603,
1287,enrofloxacin,O=C(O)\C3=C\N(c2cc(N1CCN(CC)CC1)c(F)cc2C3=O)C4CC4,water,0.000659022,64326,-3.1811,
1287,ephedrine,O[C@H](c1ccccc1)[C@@H](NC)C,water,0.443608644,8935,-0.353,
1287,ephedrine,O[C@H](c1ccccc1)[C@@H](NC)C,water,0.380189396,8935,-0.42,
1287,epichlorohydrin,ClCC1CO1,water,0.707945784,13837112,-0.15,
1287,epitiostanol,S1C5C1CC4C(C3C(C2C(C(CC2)O)(CC3)C)CC4)(C5)C,water,3.89045E-06,3130,-5.41000005,
1287,eptc,S(C(=O)N(CCC)CCC)CC,water,0.001995262,12428,-2.7,
1287,equilenin,Oc4cc1c(c2c(cc1)C3C(CC2)(C(=O)CC3)C)cc4,water,5.7544E-06,10152,-5.240000028,
1049,equilin,O=C3CC[C@H]4C/2=C/Cc1c(ccc(O)c1)[C@H]\2CC[C@]34C,water,1.01391E-05,193995,-4.994,
1287,equilin,Oc1cc4c(cc1)C3CCC2(C(CCC2=O)C3=CC4)C,water,5.24808E-06,3134,-5.279999967,
1287,eriodictyol,O1C(CC(=O)c2c1cc(cc2O)O)c3cc(c(cc3)O)O,water,0.000239883,10624,-3.62,
1287,erythritol,OC(C(O)CO)CO,water,5.011872336,13835932,0.7,
1049,estradiol-17-alpha,Oc1cc3c(cc1)[C@H]2CC[C@@]4([C@H](O)CC[C@H]4[C@@H]2CC3)C,water,4.89779E-06,61840,-5.31,
1287,estragole,O(C)c1ccc(cc1)CC=C,water,0.001202264,13850247,-2.92,
1049,estriol,Oc1cc3c(cc1)[C@H]2CC[C@@]4([C@@H](O)[C@H](O)C[C@H]4[C@@H]2CC3)C,water,8.03526E-05,5553,-4.095,
1287,estriol,Oc1cc3c(cc1)[C@H]2CC[C@@]4([C@@H](O)[C@H](O)C[C@H]4[C@@H]2CC3)C,water,0.000100462,5553,-3.998,
1287,estriol,Oc1cc3c(cc1)[C@H]2CC[C@@]4([C@@H](O)[C@H](O)C[C@H]4[C@@H]2CC3)C,water,1.12202E-05,5553,-4.949999982,
1049,estrone,O=C4[C@]3(CC[C@@H]2c1ccc(O)cc1CC[C@H]2[C@@H]3CC4)C,water,5.55904E-06,5660,-5.255,
1287,estrone,O=C4[C@]3(CC[C@@H]2c1ccc(O)cc1CC[C@H]2[C@@H]3CC4)C,water,7.76247E-06,5660,-5.110000009,
1287,estrone,O=C4[C@]3(CC[C@@H]2c1ccc(O)cc1CC[C@H]2[C@@H]3CC4)C,water,0.000109648,5660,-3.959999998,
1287,ethalfluralin,[N+](=O)([O-])c1c(c(cc(c1)C(F)(F)F)[N+](=O)[O-])N(CC)CC(=C)C,water,7.58578E-07,37761,-6.119999757,
1287,ethane,CC,water,0.043651583,6084,-1.36,
1287,ethane,CC,water,0.001862087,6084,-2.73,
1287,ethanethiol,SCC,water,0.251188643,6103,-0.6,
1287,ethanol,OCC,water,12.58925412,682,1.1,
1287,ethene,C=C,water,0.398107171,6085,-0.4,
1287,ethinyl estradiol,OC4(C1(C(C3C(CC1)c2c(cc(cc2)O)CC3)CC4)C)C#C,water,5.01187E-05,3170,-4.300000003,
1287,ethiofencarb,S(CC)Cc1c(cccc1)OC(=O)NC,water,0.008128305,31991,-2.09,
1287,ethion,S(P(=S)(OCC)OCC)CSP(=S)(OCC)OCC,water,2.88403E-06,3171,-5.539999925,
1287,ethirimol,N1C(=NC(=C(C1=O)CCCC)C)NCC,water,0.000933254,29820,-3.03,
1287,ethirimol,N(CC)c1nc(c(c(n1)C)CCCC)O,water,0.000954993,29820,-3.02,
1287,ethisterone,OC4(C3(C(C2C(C1(CCC(=O)C=C1CC2)C)CC3)CC4)C)C#C,water,2.18776E-06,3172,-5.659999925,
1287,ethofumesate,S(=O)(=O)(Oc1cc2c(cc1)OC(C2(C)C)OCC)C,water,0.000380189,30816,-3.42,
1287,"ethoxy-ethyl-sulfanylidene-(2,4,5-trichlorophenoxy)phosphorane",Clc1c(cc(c(c1)Cl)OP(=S)(OCC)CC)Cl,water,1.77828E-06,9105,-5.7500001,
1287,"Ethyl (2-{[(4-aminophenyl)sulfonyl]amino}-4-methyl-1,3-thiazol-5-yl)acetate",CCOC(=O)Cc1c(nc(s1)NS(=O)(=O)c2ccc(cc2)N)C,water,0.001327394,28295134,-2.877,
1287,ethyl 2-(6-methoxynaphthalen-2-yl)propanoate,c21c(cc(cc1)OC)ccc(c2)C(C(=O)OCC)C,water,5.72796E-06,2014758,-5.242000023,
1287,ethyl 2-(benzoyl)benzoate,c1(c(cccc1)C(=O)OCC)C(=O)c2ccccc2,water,0.00039355,192449,-3.405000001,
1287,ethyl 2-(benzoylamino)-2-methylpropanoate,C(C(=O)OCC)(NC(=O)c1ccccc1)(C)C,water,0.065313055,225603,-1.185,
1287,ethyl 2-(benzoylamino)-3-(4-hydroxyphenyl)propanoate,C(NC(=O)c1ccccc1)(Cc2ccc(cc2)O)C(=O)OCC,water,0.000465586,221945,-3.332,
1287,ethyl 2-[[(4-chloro-6-methoxypyrimidin-2-yl)-formylamino]sulfamoyl]benzoate,Clc1nc(nc(c1)OC)N(NS(=O)(=O)c2c(cccc2)C(=O)OCC)C=O,water,2.63027E-05,10469226,-4.579999999,
1287,"ethyl 2-[4-(1,3-benzothiazol-2-yl)phenyl]acetate",c1(sc2c(n1)cccc2)-c3ccc(cc3)CC(=O)OCC,water,4.37522E-05,10441817,-4.358999995,
1287,ethyl 2-acetamido-3-phenylpropanoate,C(C(=O)OCC)(Cc1ccccc1)NC(=O)C,water,0.013803843,522107,-1.86,
1287,ethyl 2-hydroxy-2-phenylacetate,c1(ccccc1)C(C(=O)OCC)O,water,0.055462571,12508,-1.256,
1287,"ethyl 2-thioxo-1,2-dihydro-5-pyrimidinecarboxylate",C1(=CNC(=S)N=C1)C(=O)OCC,water,0.018071741,21393569,-1.743,
1287,"ethyl 2,5-dimethylpiperazine-1-carboxylate",N1(C(CNC(C1)C)C)C(=O)OCC,water,4.487453899,11370604,0.652,
1287,ethyl 3-bromo-4-hydroxybenzoate,c1(cc(c(cc1)O)Br)C(=O)OCC,water,0.000408319,3965604,-3.389,
1287,ethyl 3-chloro-4-hydroxybenzoate,c1(cc(c(cc1)O)Cl)C(=O)OCC,water,0.000598412,10468840,-3.223,
1287,"ethyl 3,5-dimethyl-1H-pyrrole-2-carboxylate",c1(c(cc([nH]1)C)C)C(=O)OCC,water,0.002393316,121141,-2.621,
1287,ethyl 4-(ethylcarbamothioyl)piperazine-1-carboxylate,N1(C(=O)OCC)CCN(CC1)C(=S)NCC,water,0.01629296,1752651,-1.788,
1287,"Ethyl 4-carbamoyl-2,5-dimethyl-1-piperazinecarboxylate",CCOC(=O)N1CC(N(CC1C)C(=O)N)C,water,0.279254384,28295042,-0.554,
1287,ethyl 4-hydroxy-3-iodobenzoate,c1(cc(c(cc1)O)I)C(=O)OCC,water,0.000322107,9395092,-3.492,
1049,ethyl 4-hydroxybenzoate,O=C(OCC)c1ccc(O)cc1,water,0.005116818,13846749,-2.291,
1287,ethyl 4-hydroxybenzoate,O=C(OCC)c1ccc(O)cc1,water,0.010990058,13846749,-1.959,
1287,ethyl 4-hydroxybenzoate,O=C(OCC)c1ccc(O)cc1,water,0.004466836,13846749,-2.35,
1287,ethyl 4-hydroxybenzoate,O=C(OCC)c1ccc(O)cc1,water,0.011000185,13846749,-1.9586,
1287,ethyl 4-methylpiperazine-1-carboxylate,N1(C(=O)OCC)CCN(CC1)C,water,13.42764961,61583,1.128,
1287,"ethyl 5-(benzoyl)-2,3-dihydro-1H-pyrrolizine-1-carboxylate",n31c(ccc1C(=O)c2ccccc2)C(CC3)C(=O)OCC,water,6.35331E-05,7990100,-4.197000001,
1287,ethyl acetate,O(CC)C(=O)C,water,0.912010839,8525,-0.04,
1287,ethyl acetate,C(=O)(C)OCC,water,0.912010839,8525,-0.04,
1287,ethyl acrylate,O(CC)C(=O)C=C,water,0.181970086,8490,-0.74,
1287,ethyl acrylate,C(=O)(C=C)OCC,water,0.181970086,8490,-0.74,
1287,Ethyl benzenesulfonate,c1(ccccc1)S(=O)(=O)OCC,water,0.007396053,10140,-2.131,
1287,ethyl benzoate,O=C(OCC)c1ccccc1,water,0.004786301,6897,-2.32,
1287,ethyl biscoumacetate,O2c1c(cccc1)C(=C(C2=O)C(C4=C(c3c(cccc3)OC4=O)O)C(=O)OCC)O,water,0.000218776,10444159,-3.660000001,
1287,ethyl butyrate,O(CC)C(=O)CCC,water,0.052480746,7475,-1.28,
1287,ethyl butyrate,C(=O)(CCC)OCC,water,0.052480746,7475,-1.28,
1287,ethyl butyrate,O(CCCCC)C(=O)CC,water,0.052480746,11716,-1.28,
1287,ethyl caprinate,O(CC)C(=O)CCCCCCCCC,water,7.94328E-05,7757,-4.100000003,
1287,ethyl capronate,O(CC)C(=O)CCCCC,water,0.004897788,29005,-2.31,
1287,ethyl caprylate,O(CC)C(=O)CCCCCCC,water,0.00040738,7511,-3.39,
1287,ethyl caprylate,C(=O)(CCCCCCC)OCC,water,0.00040738,7511,-3.39,
1287,ethyl cinnamate,O(CC)C(=O)C=Cc1ccccc1,water,0.001,553344,-3,
1287,ethyl eburnamenine-14-carboxylate,c21n3c5c(c1CCN4C2C(C=C3C(=O)OCC)(CCC4)CC)cccc5,water,1.45546E-05,5471,-4.836999994,
1287,ethyl formate,O(CC)C=O,water,1.412537545,7734,0.15,
1287,ethyl heptylate,O(CC)C(=O)CCCCCC,water,0.001949845,7509,-2.71,
1287,ethyl heptylate,C(=O)(CCCCCC)OCC,water,0.001949845,7509,-2.71,
1287,ethyl isopropyl ether,O(C(C)C)CC,water,0.281838293,11754,-0.55,
969,ethyl maltol,O=C\1C(/O)=C(\O/C=C/1)CC,water,0.12771,19804,-0.893775095,
1287,ethyl N-[(2E)-4-oxo-2-penten-2-yl]glycinate,C(=CC(=O)C)(NCC(=O)OCC)C,water,0.259417936,10468880,-0.586,
1287,ethyl nonanoate,O(CC)C(=O)CCCCCCCC,water,0.000158489,28991,-3.800000001,
1287,ethyl nonanoate,C(=O)(CCCCCCCC)OCC,water,0.000158489,28991,-3.800000001,
1287,ethyl propionate,O(CC)C(=O)CC,water,0.218776162,7463,-0.66,
1287,ethyl propionate,C(=O)(CC)OCC,water,0.218776162,7463,-0.66,
1287,ethyl propyl ether,O(CCC)CC,water,0.218776162,11835,-0.66,
1287,ethyl valerate,O(CC)C(=O)CCCC,water,0.017782794,10420,-1.75,
1287,ethyl valerate,C(=O)(CCCC)OCC,water,0.017782794,10420,-1.75,
1287,ethyl vinyl ether,O(CC)C=C,water,0.141253754,7732,-0.85,
1287,ethyl vinyl ether,O(C=C)CC,water,0.141253754,7732,-0.85,
1287,Ethylbenzene,C(C)c1ccccc1,water,0.001698244,7219,-2.77,
1287,Ethylcyclohexane,C1(CCCCC1)CC,water,5.62341E-05,14751,-4.249999996,
1287,ethylene glycol,C(CO)O,water,1.202264435,13835235,0.08,
1287,ethylenethiourea,S=C1NCCN1,water,0.19498446,2005851,-0.71,
1049,ethynylestradiol-17-alpha,Oc1cc4c(cc1)[C@H]3CC[C@]2([C@@H](CC[C@]2(C#C)O)[C@@H]3CC4)C,water,3.11889E-05,5770,-4.506,
1287,etofenprox,O(CC(C)(C)c1ccc(cc1)OCC)Cc2cc(ccc2)Oc3ccccc3,water,2.512E-09,64377,-8.599980365,
1287,etomidate,n1(cncc1C(=O)OCC)C(C)c2ccccc2,water,1.8197E-05,33418,-4.73999999,
1287,"etoposide (148-167,25mg/ml)",O1C(OCC2OC(C(C(C21)O)O)OC4C3COC(=O)C3C(c5c4cc6c(c5)OCO6)c7cc(c(c(c7)OC)O)OC)C,water,0.000269153,3194,-3.570000001,
1287,etryptamine,[nH]1c2c(c(c1)CC(N)CC)cccc2,water,0.002691535,8064,-2.57,
1287,eucalyptol,O1C2(CCC(C1(C)C)CC2)C,water,0.022908677,2656,-1.64,
1287,eucalyptol,O1C2(CCC(C1(C)C)CC2)C,water,0.015135612,2656,-1.82,
1287,eugenol,O(C)c1c(ccc(c1)CC=C)O,water,0.027542287,13876103,-1.56,
1287,famotidine,O=S(=O)(N=C(N)CCSCc1nc(/N=C(/N)N)sc1)N,water,0.002255278,3208,-2.6468,
1049,fenbufen,O=C(O)CCC(=O)c2ccc(c1ccccc1)cc2,water,7.17794E-05,3218,-4.144,
1287,fenbufen,O=C(O)CCC(=O)c2ccc(c1ccccc1)cc2,water,8.72971E-06,3218,-5.058999984,
1287,fenbufen,OC(=O)CCC(=O)c1ccc(cc1)-c2ccccc2,water,8.70964E-06,3218,-5.059999995,
1287,fenfuram,N(c1ccccc1)C(=O)c2c(occ2)C,water,0.000501187,81792,-3.3,
1287,fenfuram,o1c(c(cc1)C(=O)Nc2ccccc2)C,water,0.000501187,81792,-3.3,
1287,fenitrothion,S=P(Oc1cc(c(cc1)[N+]([O-])=O)C)(OC)OC,water,5.04661E-05,28941,-4.296999998,
1287,fenitrothion,S=P(Oc1cc(c(cc1)[N+]([O-])=O)C)(OC)OC,water,9.12011E-05,28941,-4.04,
1287,fenoprofen,O=C(O)C(c2cc(Oc1ccccc1)ccc2)C,water,0.000200355,3225,-3.698199999,
1287,fenothiocarb,S(CCCCOc1ccccc1)C(=O)N(C)C,water,0.00011749,40198,-3.930000002,
1026,fenoxycarb,O=C(OCC)NCCOc2ccc(Oc1ccccc1)cc2,water,0.00002,46739,-4.698970004,
1287,fenoxycarb,N(CCOc1ccc(cc1)Oc2ccccc2)C(=O)OCC,water,1.99526E-05,46739,-4.700000003,
1287,fenpropathrin,N#CC(OC(=O)C1C(C1(C)C)(C)C)c2cc(ccc2)Oc3ccccc3,water,9.33254E-07,43074,-6.03000014,
1287,fensulfothion,S(=O)(C)c1ccc(cc1)OP(=S)(OCC)OCC,water,0.005011872,7991,-2.3,
1287,fenthion,S(C)c1c(cc(cc1)OP(=S)(OC)OC)C,water,2.69153E-05,3229,-4.570000001,
1287,fenuron,N(C)(C)C(=O)Nc1ccccc1,water,0.025118864,7279,-1.6,
969,fluasterone,O=C3[C@]2(CC[C@@H]1[C@@]4(C(=C/C[C@H]1[C@@H]2C[C@H]3F)\CCCC4)C)C,water,0.00000016,118130,-6.795880017,
1287,fludrocortisone,O=C(CO)C3(O)C2(CC(O)C4(F)C1(/C(=C\C(=O)CC1)CCC4C2CC3)C)C,water,0.000371535,29111,-3.43,
1287,fludrocortisone,O=C(CO)C3(O)C2(CC(O)C4(F)C1(/C(=C\C(=O)CC1)CCC4C2CC3)C)C,water,0.032433962,29111,-1.489,
1049,flufenamic acid,FC(F)(F)c1cc(ccc1)Nc2ccccc2C(=O)O,water,3.90841E-05,3254,-4.408,
1287,flufenamic acid,FC(F)(F)c1cc(ccc1)Nc2c(cccc2)C(=O)O,water,4.36516E-05,3254,-4.360000002,
1287,flufenamic acid,FC(F)(F)c1cc(ccc1)Nc2ccccc2C(=O)O,water,4.41977E-06,3254,-5.354600035,
1287,flumequine,Fc2cc1C(=O)/C(C(=O)O)=C\N3c1c(c2)CCC3C,water,0.000185097,3257,-3.732600001,
1287,flumetralin,[N+](=O)([O-])c1c(c(cc(c1)C(F)(F)F)[N+](=O)[O-])N(CC)Cc2c(cccc2Cl)F,water,1.65959E-07,56023,-6.779999191,
1036,fluoranthene,c1ccc-2c(c1)-c3cccc4c3c2ccc4,water,1.20226E-06,8800,-5.92,
1287,fluoranthene,c1ccc-2c(c1)-c3cccc4c3c2ccc4,water,0.000001,8800,-6,
1287,fluoranthene,c1ccc-2c(c1)-c3cccc4c3c2ccc4,water,1.20226E-06,8800,-5.920000157,
1039,fluorene,c1ccc-2c(c1)Cc3c2cccc3,water,0.00001,6592,-5,
1287,fluorene,c1ccc-2c(c1)Cc3c2cccc3,water,1.23027E-05,6592,-4.90999999,
1287,fluorene,c1ccc-2c(c1)Cc3c2cccc3,water,0.00001,6592,-5,
1287,fluorobenzene,Fc1ccccc1,water,0.015848932,9614,-1.8,
1287,fluorodifen,FC(F)(F)c1cc(c(cc1)Oc2ccc(cc2)[N+](=O)[O-])[N+](=O)[O-],water,6.0256E-06,25404,-5.21999999,
1049,flurbiprofen,Fc2cc(ccc2c1ccccc1)C(C(=O)O)C,water,0.000136458,3277,-3.865,
1287,flurbiprofen,Fc2cc(ccc2c1ccccc1)C(C(=O)O)C,water,3.23594E-05,3277,-4.489999996,
1287,flurbiprofen,Fc2cc(ccc2c1ccccc1)C(C(=O)O)C,water,7.05018E-05,3277,-4.151799998,
1049,folic acid,c1cc(ccc1C(=O)N[C@@H](CCC(=O)O)C(=O)O)NCc2cnc3c(n2)c(=O)nc([nH]3)N,water,1.30017E-05,5815,-4.886,
1287,formanilide,N(c1ccccc1)C=O,water,0.208929613,7388,-0.68,
1287,formetanate,N(C)(C)C=Nc1cc(ccc1)OC(=O)NC,water,0.004570882,28856,-2.34,
1287,formothion,S(P(=S)(OC)OC)CC(=O)N(C)C=O,water,0.01,16412,-2,
1287,fructose,O1C(C(C(C(C1)O)O)O)(O)CO,water,4.365158322,3308,0.64,
1287,furan,o1cccc1,water,0.151356125,7738,-0.82,
1287,furfural,c1cc(oc1)C=O,water,0.794328235,13863629,-0.1,
1287,"furo[3,2-g]chromen-7-one",c31c(cc2c(c1)cco2)OC(=O)C=C3,water,0.00018197,5964,-3.74,
969,furosemide,O=S(=O)(N)c1c(Cl)cc(c(C(=O)O)c1)NCc2occc2,water,0.00013,3322,-3.886056648,
1158,furosemide,O=S(=O)(N)c1c(Cl)cc(c(C(=O)O)c1)NCc2occc2,water,0.000127902,3322,-3.893123433,
1287,furosemide,O=S(=O)(N)c1c(Cl)cc(c(C(=O)O)c1)NCc2occc2,water,0.000218776,3322,-3.660000001,
1287,furosemide,O=S(=O)(N)c1c(Cl)cc(c(C(=O)O)c1)NCc2occc2,water,0.000149624,3322,-3.824999999,
1287,gallic acid,Oc1c(cc(cc1O)C(=O)O)O,water,0.069183097,361,-1.16,
1287,gamma-butyrolactone,O1CCCC1=O,water,11.74897555,7029,1.07,
1287,genostrychnine,C621C5C4C3CC1[N+](CC2)(CC3=CCOC4CC(=O)N5c7c6cccc7)[O-],water,0.053088444,547547,-1.275,
1287,gentisin,O2c1c(c(cc(c1)OC)O)C(=O)c3c2ccc(c3)O,water,0.001174898,4444955,-2.93,
1287,gibberellic acid,O3C21C4C5(C(C1C(C(C=C2)O)(C3=O)C)C(=O)O)CC(CC4)(C(=C)C5)O,water,0.014454398,455898,-1.84,
1049,glafenine,O=C(OCC(O)CO)c1ccccc1Nc2c3ccc(Cl)cc3ncc2,water,2.90402E-05,3355,-4.537,