Experiment Number (900 series refer to external references),solute,solute SMILES,solvent,concentration (M),csid,solubility,
1287,androstane-17-one,O=C4C3(C(C1C(C2(C(CC1)CCCC2)C)CC3)CC4)C,water,1.99526E-07,456374,-6.700000504,
1287,Androstanedione,C1(=O)C(=O)CC3(C(C1)CCC4C2CCCC2(C)CCC43)C,water,0.00017378,25948811,-3.76,
1287,androstenedione,O=C4/C=C3/CC[C@@H]2[C@H](CC[C@@]1(C(=O)CC[C@H]12)C)[C@@]3(C)CC4,water,0.000204174,5898,-3.690000001,
1287,androsterone,[C@H]23[C@@H]([C@@]1([C@H](C[C@H](O)CC1)CC2)C)CC[C@]4([C@H]3CCC4=O)C,water,6.91831E-05,5668,-4.160000001,
1287,anethole,O(C)c1ccc(cc1)C=CC,water,0.00074131,553166,-3.13,
1287,aniline,Nc1ccccc1,water,0.389045145,5889,-0.41,
1287,anisole,COc1ccccc1,water,0.014125375,7238,-1.85,
1287,anisomycin,N1C(C(C(C1)O)OC(=O)C)Cc2ccc(cc2)OC,water,0.024547089,2114,-1.61,
1287,antazoline,N1CCN=C1CN(Cc2ccccc2)c3ccccc3,water,0.002511886,2115,-2.6,
1004,anthracene,c1ccc2cc3ccccc3cc2c1,water,0.000,8111,-6.61312054,
1287,anthracene,c31c(cc2c(c1)cccc2)cccc3,water,4.46684E-07,8111,-6.349999603,
1287,anthracene,c2cccc3cc1ccccc1cc32,water,4.0738E-07,8111,-6.390000296,
1287,anthraquinone,O=C2c1c(cccc1)C(=O)c3c2cccc3,water,6.45654E-06,13835294,-5.19000002,
1287,anthraquinone,c1cccc3c1C(=O)c2c(cccc2)C3=O,water,6.45654E-06,13835294,-5.19000002,
969,antipyrine,O=C2\C=C(/N(N2c1ccccc1)C)C,water,3.294,2121,0.517723595,
1287,antipyrine,O=C2\C=C(/N(N2c1ccccc1)C)C,water,0.081470428,2121,-1.089,
1287,antipyrine,O=C2\C=C(/N(N2c1ccccc1)C)C,water,5.12861384,2121,0.71,
1288,antipyrine,O=C2\C=C(/N(N2c1ccccc1)C)C,water,0.5313,2121,-0.274660184,
1289,antipyrine,O=C2\C=C(/N(N2c1ccccc1)C)C,water,0.2757,2121,-0.559563234,
1287,apazone,N32N(c1c(ccc(c1)C)N=C2N(C)C)C(=O)C(C3=O)CCC,water,0.000288403,24310,-3.54,
1287,aprobarbital,O=C1NC(=O)NC(=O)C1(C(C)C)C\C=C,water,0.019408859,6221,-1.712,
1287,aprobarbital,O=C1NC(=O)NC(=O)C1(C(C)C)C\C=C,water,0.019498446,6221,-1.71,
1287,arecoline,N1(CCC=C(C1)C(=O)OC)C,water,6.45654229,13872064,0.81,
1287,arginine,C(C(=O)O)(CCCNC(=N)N)N,water,1.132400363,227,0.054,
915,ascorbic acid,O\C1=C(/O)C(=O)O[C@@H]1[C@@H](O)CO,water,1.852,10189562,0.26769309,
922,ascorbic acid,O\C1=C(/O)C(=O)O[C@@H]1[C@@H](O)CO,water,1.618,10189562,0.209079745,
969,aspartic acid,N[C@@H](CC(=O)O)C(=O)O,water,0.038,5745,-1.424235019,
1287,aspartic acid,N[C@@H](CC(=O)O)C(=O)O,water,0.05999292,5745,-1.2219,
1287,asulam,S(=O)(=O)(NC(=O)OC)c1ccc(cc1)N,water,0.021877616,17707,-1.66,
1287,atenolol,CC(C)NCC(COc1ccc(cc1)CC(=O)N)O,water,1.096478196,2162,0.04,
1287,atratone,N(C(C)C)c1nc(nc(n1)OC)NCC,water,0.008317638,14620,-2.08,
1287,atrazine,CC/N=c/1\[nH]/c(=N/C(C)C)/[nH]c(n1)Cl,water,0.000141254,2169,-3.850000001,
1287,atrazine,CC/N=c/1\[nH]/c(=N/C(C)C)/[nH]c(n1)Cl,water,0.000175388,2169,-3.756,
1304,atrazine,CC/N=c/1\[nH]/c(=N/C(C)C)/[nH]c(n1)Cl,water,0.000,2169,-3.856695288,
1305,atrazine,CC/N=c/1\[nH]/c(=N/C(C)C)/[nH]c(n1)Cl,water,0.000,2169,-3.828666578,
1306,atrazine,CC/N=c/1\[nH]/c(=N/C(C)C)/[nH]c(n1)Cl,water,0.000,2169,-3.795997456,
1287,atropic acid,OC(=O)C(=C)c1ccccc1,water,0.008709636,10816467,-2.06,
1049,atropine,CN3[C@H]1CC[C@@H]3C[C@@H](C1)OC(=O)C(CO)c2ccccc2,water,0.006561453,10194105,-2.183,
1287,atropine,CN3[C@H]1CC[C@@H]3C[C@@H](C1)OC(=O)C(CO)c2ccccc2,water,0.012302688,10194105,-1.91,
1287,atropine,CN3[C@H]1CC[C@@H]3C[C@@H](C1)OC(=O)C(CO)c2ccccc2,water,0.066069345,10194105,-1.18,
1287,atropine,CN3[C@H]1CC[C@@H]3C[C@@H](C1)OC(=O)C(CO)c2ccccc2,water,0.009942601,10194105,-2.0025,
1049,azathioprine,[O-][N+](=O)c3ncn(c3Sc1ncnc2ncnc12)C,water,0.000526017,2178,-3.279,
1287,azathioprine,Brc1cc(C(=O)O)c(N)cc1,water,0.000619726,72150,-3.2078,
1287,azelaic acid,OC(=O)CCCCCCCC(=O)O,water,0.012882496,2179,-1.89,
1287,azobenzene,N(=N/c1ccccc1)\c2ccccc2,water,3.54813E-05,2185,-4.449999999,
1287,azobenzene,N(=N/c1ccccc1)\c2ccccc2,water,0.000113763,2185,-3.943999998,
1287,azodrin,P(=O)(OC)(OC)OC(=CC(=O)NC)C,water,4.466835922,4522053,0.65,
1287,b-endosulfan,ClC3(Cl)[C@@]1(Cl)C(/Cl)=C(/Cl)[C@]3(Cl)[C@H]2COS(=O)OC[C@@H]12,water,8.31764E-07,16736499,-6.07999988,
1049,baclofen,Clc1ccc(cc1)C(CN)CC(=O)O,water,0.0165577,2197,-1.781,
969,barbital,CCC1(C(=O)NC(=O)NC1=O)CC,water,0.040,2206,-1.397940009,
1287,barbital,CCC1(C(=O)NC(=O)NC1=O)CC,water,0.004008667,2206,-2.397,
1287,barbital,CCC1(C(=O)NC(=O)NC1=O)CC,water,0.040738028,2206,-1.39,
1287,benfluralin,[N+](=O)([O-])c1c(c(cc(c1)C(F)(F)F)[N+](=O)[O-])N(CCCC)CC,water,2.95121E-06,2229,-5.530000033,
1287,benfuracarb,S(N(C(C)C)CCC(=O)OCC)N(C)C(=O)Oc1c2c(ccc1)CC(O2)(C)C,water,1.94984E-05,49560,-4.71,
1287,benomyl,n1(c(nc2c1cccc2)NC(=O)OC)C(=O)NCCCC,water,1.31826E-05,26771,-4.880000013,
1287,bensulide,S(=O)(=O)(NCCSP(=S)(OC(C)C)OC(C)C)c1ccccc1,water,6.30957E-05,12397,-4.200000003,
1287,bentazon,S2(=O)(=O)N(C(=O)c1c(cccc1)N2)C(C)C,water,0.002089296,2238,-2.68,
1287,bentranil,N1=C(OC(=O)c2c1cccc2)c3ccccc3,water,2.45471E-05,13324,-4.610000003,
1167,benzaldehyde,c1ccccc1C=O,water,0.039409859511862,235,-1.404395113,
1287,benzaldehyde,O=Cc1ccccc1,water,0.064565423,235,-1.19,
1287,benzaldehyde,C(=O)c1ccccc1,water,0.064565423,235,-1.19,
1049,benzamide,c1ccc(cc1)C(=O)N,water,0.084333476,2241,-1.074,
1287,benzamide,c1ccc(cc1)C(=O)N,water,0.10964782,2241,-0.96,
1287,benzene,c1ccccc1,water,0.022908677,236,-1.64,
1287,"benzene-1,2,4-tricarboxylic acid",c1(c(ccc(c1)C(=O)O)C(=O)O)C(=O)O,water,0.400866718,10258,-0.397,
1287,"benzene-1,3-disulfonamide",S(=O)(=O)(c1cc(ccc1)S(=O)(=O)N)N,water,0.006776415,2346082,-2.169,
1287,"benzene-1,4-dicarbohydrazide",c1(ccc(cc1)C(=O)NN)C(=O)NN,water,0.005152286,60626,-2.288,
1287,"benzene-1,4-disulfonamide",S(=O)(=O)(c1ccc(cc1)S(=O)(=O)N)N,water,0.002964831,10438313,-2.528,
1287,benzenesulfonamide,S(=O)(=O)(N)c1ccccc1,water,0.027542287,7092,-1.56,
1287,benzhydrol,OC(c1ccccc1)c2ccccc2,water,0.002818383,6770,-2.55,
1287,benzidine,Nc1ccc(cc1)-c2ccc(cc2)N,water,0.001995262,6844,-2.7,
1037,benzil,c1ccc(cc1)C(=O)C(=O)c2ccccc2,water,8.91251E-05,8329,-4.05,
1287,benzil,c1ccc(cc1)C(=O)C(=O)c2ccccc2,water,0.001570363,8329,-2.804,
1287,benzilic acid,OC(c1ccccc1)(c2ccccc2)C(=O)O,water,0.00616595,6220,-2.21,
1287,benznidazole,[N+](=O)([O-])c1n(ccn1)CC(=O)NCc2ccccc2,water,0.001548817,29299,-2.81,
1287,benzo[a]fluorene,C2c1c4c(ccc1-c3ccccc32)cccc4,water,2.0893E-07,8840,-6.679999196,
1287,Benzo[a]pyrene,c21c3c4ccc1c5c(cc2ccc3ccc4)cccc5,water,6.457E-09,2246,-8.189969214,
1287,Benzo[a]pyrene,c51c(cc2ccc3cccc4ccc1c2c43)cccc5,water,6.457E-09,2246,-8.189969214,
1287,Benzo[a]pyrene,c51c(cc2ccc3cccc4ccc1c2c43)cccc5,water,1.5136E-08,2246,-7.819988881,
1287,Benzo[f]quinoline,n3c1c(c2c(cc1)cccc2)ccc3,water,0.000436516,6538,-3.36,
1287,Benzo[f]quinoxaline,n1c2c(ncc1)ccc3c2cccc3,water,0.002089296,88949,-2.68,
1287,benzo[k]fluoranthene,c41c5cccc1-c2c(cc3c(c2)cccc3)-c4ccc5,water,3.236E-09,8804,-8.489991487,
969,benzocaine,O=C(OCC)c1ccc(N)cc1,water,0.001,13854242,-3.22184875,
1049,benzocaine,O=C(OCC)c1ccc(N)cc1,water,0.00613762,13854242,-2.212,
1154,benzocaine,O=C(OCC)c1ccc(N)cc1,water,0.033138577,13854242,-1.479666141,
1179,benzocaine,O=C(OCC)c1ccc(N)cc1,water,0.0058,13854242,-2.236572006,
1228,benzocaine,O=C(OCC)c1ccc(N)cc1,water,0.0056,13854242,-2.251811973,
1287,benzocaine,O=C(OCC)c1ccc(N)cc1,water,0.002398833,13854242,-2.62,
1287,benzocaine,O=C(OCC)c1ccc(N)cc1,water,0.006295062,13854242,-2.201,
900,benzoic acid,O=C(O)c1ccccc1,water,0.028,238,-1.555312502,
907,benzoic acid,c1ccccc1C(=O)O,water,0.022,238,-1.665546249,
907,benzoic acid,c1ccccc1C(=O)O,water,0.023,238,-1.64435695,
907,benzoic acid,c1ccccc1C(=O)O,water,0.024,238,-1.611011215,
907,benzoic acid,c1ccccc1C(=O)O,water,0.026,238,-1.585695312,
907,benzoic acid,c1ccccc1C(=O)O,water,0.026,238,-1.581864502,
907,benzoic acid,c1ccccc1C(=O)O,water,0.027,238,-1.568636236,
907,benzoic acid,c1ccccc1C(=O)O,water,0.027,238,-1.568314655,
907,benzoic acid,c1ccccc1C(=O)O,water,0.027,238,-1.564314862,
907,benzoic acid,c1ccccc1C(=O)O,water,0.027,238,-1.561299467,
907,benzoic acid,c1ccccc1C(=O)O,water,0.028,238,-1.56050941,
907,benzoic acid,c1ccccc1C(=O)O,water,0.028,238,-1.559090918,
907,benzoic acid,c1ccccc1C(=O)O,water,0.028,238,-1.557833914,
907,benzoic acid,c1ccccc1C(=O)O,water,0.028,238,-1.556737013,
907,benzoic acid,c1ccccc1C(=O)O,water,0.028,238,-1.555955204,
907,benzoic acid,c1ccccc1C(=O)O,water,0.028,238,-1.555799011,
907,benzoic acid,c1ccccc1C(=O)O,water,0.028,238,-1.555330769,
907,benzoic acid,c1ccccc1C(=O)O,water,0.028,238,-1.554395797,
907,benzoic acid,c1ccccc1C(=O)O,water,0.028,238,-1.553929064,
907,benzoic acid,c1ccccc1C(=O)O,water,0.028,238,-1.552841969,
907,benzoic acid,c1ccccc1C(=O)O,water,0.028,238,-1.552067134,
907,benzoic acid,c1ccccc1C(=O)O,water,0.028,238,-1.551757587,
907,benzoic acid,c1ccccc1C(=O)O,water,0.028,238,-1.55129368,
907,benzoic acid,c1ccccc1C(=O)O,water,0.029,238,-1.537602002,
969,benzoic acid,O=C(O)c1ccccc1,water,0.0284,238,-1.54668166,
977,benzoic acid,O=C(O)c1ccccc1,water,0.024,238,-1.619788758,
1049,benzoic acid,c1ccc(cc1)C(=O)O,water,0.025234808,238,-1.598,
1287,benzoic acid,OC(=O)c1ccccc1,water,0.028183829,238,-1.55,
1246,benzoin,c1ccc(cc1)C(C(=O)c2ccccc2)O,water,0.000213796,8093,-3.67,
1287,benzoin,c1ccc(cc1)C(C(=O)c2ccccc2)O,water,0.000150661,8093,-3.821999999,
1287,benzoin,c1ccc(cc1)C(C(=O)c2ccccc2)O,water,0.001412538,8093,-2.85,
1287,benzolamide,O=S(=O)(c1nnc(s1)NS(=O)(=O)c2ccccc2)N,water,0.001200052,17747,-2.9208,
1287,benzonitrile,N#Cc1ccccc1,water,0.1,7224,-1,
1287,benzophenone,O=C(c1ccccc1)c2ccccc2,water,0.000758578,2991,-3.12,
1287,benzoquinone,C1=CC(=O)C=CC1=O,water,0.102329299,4489,-0.99,
1287,benzoquinone,C1=CC(=O)C=CC1=O,water,0.27542287,4489,-0.56,
1287,benzothiazole,s1cnc2c1cccc2,water,0.031622777,6952,-1.5,
1287,benzotriazole,[nH]1nnc2c1cccc2,water,0.165958691,6950,-0.78,
1287,benzoxazole,n1coc2c1cccc2,water,0.069183097,8873,-1.16,
1287,benzyl butyl phthalate,CCCCOC(=O)c1ccccc1C(=O)OCc2ccccc2,water,2.29087E-06,2257,-5.639999934,
1287,benzyl butyl phthalate,CCCCOC(=O)c1ccccc1C(=O)OCc2ccccc2,water,2.14289E-06,2257,-5.668999919,
1287,Benzyl phenyl(sulfooxy)acetate,c1ccc(cc1)COC(=O)C(c2ccccc2)OS(=O)(=O)O,water,0.031405087,28295070,-1.503,
1287,benzylamine,NCc1ccccc1,water,0.029512092,7223,-1.53,
1287,benzylimidazole,n1ccnc1Cc2ccccc2,water,0.005524589,210172,-2.2577,
1287,Benzylmorphine,C532c1c4c(ccc1CC(C2C=CC(C3O4)O)N(CC5)C)OCc6ccccc6,water,0.005997911,452673,-2.222,
1287,benzylurea,N(Cc1ccccc1)C(=O)N,water,0.112201845,10396,-0.95,
969,beta-alanine,O=C(O)CCN,water,9.988,234,0.999478534,
1287,beta-aminobutyric acid,NC(CC(=O)O)C,water,12.02264435,10469,1.08,
1287,betaine,[N+](CC(=O)O)(C)(C)C,water,5.248074602,243,0.72,
1287,betamethasone,O=C(CO)[C@]3(O)[C@]2(C[C@H](O)[C@]4(F)[C@@]/1(\C(=C/C(=O)\C=C\1)CC[C@H]4[C@@H]2C[C@@H]3C)C)C,water,0.000160509,9399,-3.794499999,
1287,betamethasone 17-valerate,O=C(O[C@@]3(C(=O)CO)[C@]2(C[C@H](O)[C@]4(F)[C@@]/1(\C(=C/C(=O)\C=C\1)CC[C@H]4[C@@H]2C[C@@H]3C)C)C)CCCC,water,1.23794E-05,15673,-4.907299983,
1287,bibenzyl,c1ccc(cc1)CCc2ccccc2,water,2.39883E-05,7364,-4.620000003,
1287,bifenox,Clc1c(ccc(c1)Cl)Oc2cc(c(cc2)[N+](=O)[O-])C(=O)OC,water,0.000001,35891,-6,
1287,biopterin,O=C2\N=C(/Nc1ncc(nc12)[C@@H](O)[C@@H](O)C)N,water,0.000801678,392795,-3.096,
969,biphenyl,c1cc(ccc1)c2ccccc2,water,0.00004,6828,-4.397940009,
1049,biphenyl,c1ccc(cc1)c2ccccc2,water,1.27644E-05,6828,-4.894,
1287,biphenyl,c1ccc(cc1)c2ccccc2,water,4.89779E-05,6828,-4.309999999,
1287,Bis(2-ethylhexyl) hexanedioate,C(COC(=O)CCCCC(=O)OCC(CCCC)CC)(CCCC)CC,water,8.62979E-06,7358,-5.064000024,
194,boc-alanine,O=C(OC(C)(C)C)N[C@H](C(=O)O)C,water,0.180,76745,-0.744727495,
194,boc-glycine,O=C(OC(C)(C)C)NCC(=O)O,water,0.830,70660,-0.080921908,
194,boc-phenylalanine,O=C(OC(C)(C)C)N[C@H](C(=O)O)Cc1ccccc1,water,0.007,70249,-2.15490196,
1287,borneol,OC1C2(C(C(C1)CC2)(C)C)C,water,0.004786301,58234,-2.32,
1287,bromadiolone,Brc1ccc(cc1)-c2ccc(cc2)C(O)CC(C4=C(c3c(cccc3)OC4=O)O)c5ccccc5,water,3.54813E-05,10606098,-4.449999999,
1287,bromobenzene,Brc1ccccc1,water,0.002818383,7673,-2.55,
1287,bromobenzene,c1(ccccc1)Br,water,0.002818383,7673,-2.55,
1287,bromochloromethane,BrCCl,water,0.128824955,6093,-0.89,
1287,bromochloromethane,C(Cl)Br,water,0.128824955,6093,-0.89,
1287,bromocyclohexane,BrC1CCCCC1,water,0.005011872,7672,-2.3,
1287,bromodichloromethane,BrC(Cl)Cl,water,0.028840315,6119,-1.54,
1287,bromodichloromethane,C(Cl)(Cl)Br,water,0.028840315,6119,-1.54,
1287,bromoethane,BrCC,water,0.081283052,6092,-1.09,
1287,bromoethane,CCBr,water,0.081283052,6092,-1.09,
1287,bromoform,BrC(Br)Br,water,0.012302688,13838404,-1.91,
1287,bromogramine,Brc1cc2c(cc1)ncc2CN(C)C,water,8.80643E-05,12692,-4.055199999,
1155,budesonide,O=C\1\C=C/[C@]2(/C(=C/1)CC[C@H]3[C@H]4[C@](C[C@H](O)[C@H]23)([C@@]5(OC(O[C@@H]5C4)CCC)C(=O)CO)C)C,water,0.000065,4444479,-4.187086643,
1049,bumetanide,O=S(=O)(c2cc(cc(NCCCC)c2Oc1ccccc1)C(=O)O)N,water,7.62079E-05,2377,-4.118,
1287,bupirimate,S(=O)(=O)(N(C)C)Oc1nc(nc(c1CCCC)C)NCC,water,6.91831E-05,35588,-4.160000001,
1287,bupivacaine,O=C(Nc1c(cccc1C)C)C2N(CCCC)CCCC2,water,0.000596898,2380,-3.2241,
1287,but-1-ene,C(C)C=C,water,0.011481536,7556,-1.94,
1287,but-1-yne,C(C)C#C,water,0.057543994,7558,-1.24,
1287,but-3-yn-2-yl N-(3-chlorophenyl)carbamate,Clc1cc(ccc1)NC(=O)OC(C)C#C,water,0.002398833,15261,-2.62,
1287,"buta-1,3-diene",C(=C)C=C,water,0.013489629,7557,-1.87,
969,butabarbital,O=C1NC(=O)NC(=O)C1(C(C)CC)CC,water,0.00424,2385,-2.372634143,
1287,butabarbital,O=C1NC(=O)NC(=O)C1(C(C)CC)CC,water,0.004073803,2385,-2.39,
1287,butabarbital,N1C(=O)NC(=O)C(C1=O)(C(CC)C)CC,water,0.004073803,2385,-2.39,
1287,butacarb,N(C)C(=O)Oc1cc(cc(c1)C(C)(C)C)C(C)(C)C,water,5.7544E-05,16607,-4.239999998,
1049,butamben,O=C(OCCCC)c1ccc(N)cc1,water,0.000889201,2388,-3.051,
1287,butamben,O=C(OCCCC)c1ccc(N)cc1,water,0.007603263,2387,-2.119,
1287,butamben,O=C(OCCCC)c1ccc(N)cc1,water,0.000831764,2388,-3.08,
1287,butamben,O=C(OCCCC)c1ccc(N)cc1,water,0.000879023,2388,-3.056,
1287,butanal,O=CCCC,water,0.977237221,256,-0.01,
1287,butane,CCCC,water,0.002691535,7555,-2.57,
1287,butane,CCCC,water,0.001122018,7555,-2.95,
1287,butanethiol,SCCCC,water,0.006606934,7721,-2.18,
1287,buthidazole,s1c(nnc1C(C)(C)C)N2C(CN(C2=O)C)O,water,0.013182567,37830,-1.88,
1287,butobarbital,O=C1NC(=O)NC(=O)C1(CCCC)CC,water,0.02128139,6229,-1.672,
1287,butobarbital,O=C1NC(=O)NC(=O)C1(CCCC)CC,water,0.022908677,6229,-1.64,
1287,butyl 2-(6-methoxynaphthalen-2-yl)propanoate,c21c(ccc(c1)C(C(=O)OCCCC)C)cc(cc2)OC,water,2.9512E-08,9704136,-7.530001358,
1287,Butyl 3-bromo-4-hydroxybenzoate,CCCCOC(=O)c1ccc(c(c1)Br)O,water,0.000212324,28295176,-3.673,
1287,butyl 3-chloro-4-hydroxy-benzoate,c1(cc(c(cc1)O)Cl)C(=O)OCCCC,water,0.000306196,25913307,-3.514000001,
1287,butyl 4-acetamidobenzoate,c1(ccc(cc1)NC(=O)C)C(=O)OCCCC,water,0.000348337,1718617,-3.458,
1287,butyl 4-hydroxy-3-iodobenzoate,c1(cc(c(cc1)O)I)C(=O)OCCCC,water,0.000125026,10468832,-3.903,
1287,butyl acetate,O(CCCC)C(=O)C,water,0.057543994,29012,-1.24,
1287,butyl acetate,C(=O)(C)OCCCC,water,0.057543994,29012,-1.24,
1287,butyl benzoate,O(CCCC)C(=O)c1ccccc1,water,0.000331131,8374,-3.480000001,
1287,butyl formate,O(CCCC)C=O,water,0.042657952,11125,-1.37,
1287,butyl N-sulfamoylcarbamate,S(=O)(=O)(NC(=O)OCCCC)N,water,0.091622049,10469219,-1.038,
1287,butyl pyridine-3-carboxylate,c1(cnccc1)C(=O)OCCCC,water,0.014554591,73402,-1.837,
1287,butylate,S(CC)C(=O)N(CC(C)C)CC(C)C,water,0.00020893,15357,-3.68,
1287,butylbenzene,c1ccccc1CCCC,water,8.70964E-05,7419,-4.06,
1049,butylparaben,O=C(OCCCC)c1ccc(O)cc1,water,0.00108893,6916,-2.963,
1287,butylparaben,O=C(OCCCC)c1ccc(O)cc1,water,0.001030386,6916,-2.987,
1287,butylparaben,O=C(OCCCC)c1ccc(O)cc1,water,0.001905461,6916,-2.72,
1287,butylparaben,O=C(OCCCC)c1ccc(O)cc1,water,0.00150003,6916,-2.8239,
1287,butyric acid,OC(=O)CCC,water,0.645654229,259,-0.19,
969,caffeine,O=C2N(c1ncn(c1C(=O)N2C)C)C,water,0.114395565,2424,-0.941590812,
1049,caffeine,Cn1cnc2c1c(=O)n(c(=O)n2C)C,water,0.096161228,2424,-1.017,
1151,caffeine,Cn1cnc2c1c(=O)n(c(=O)n2C)C,water,0.114395567,2424,-0.941590804,
1287,caffeine,n1(cnc2c1C(=O)N(C(=O)N2C)C)C,water,0.107151931,2424,-0.97,
1288,caffeine,Cn1cnc2c1c(=O)n(c(=O)n2C)C,water,0.078023938,2424,-1.107772135,
1289,caffeine,Cn1cnc2c1c(=O)n(c(=O)n2C)C,water,0.111230926,2424,-0.953774448,
1290,caffeine,Cn1cnc2c1c(=O)n(c(=O)n2C)C,water,0.114827647,2424,-0.939953534,
1287,caproic acid,OC(=O)CCCCC,water,0.087096359,8552,-1.06,
1287,caprylic acid,OC(=O)CCCCCCC,water,0.005011872,370,-2.3,
1049,carbamazepine,c1ccc2c(c1)C=Cc3ccccc3N2C(=O)N,water,0.000693426,2457,-3.159,
1287,carbamazepine,c1ccc2c(c1)C=Cc3ccccc3N2C(=O)N,water,0.000972747,2457,-3.012,
1287,carbamic acid,NC(=O)OCC(C)(C)C,water,0.158489319,69041,-0.8,
1287,carbanilide,N(c1ccccc1)C(=O)Nc2ccccc2,water,0.000707946,7314,-3.15,
1287,carbaryl,O=C(Oc2cccc1ccccc12)NC,water,0.002754229,5899,-2.56,
1287,carbaryl,O=C(Oc2cccc1ccccc12)NC,water,0.000524807,5899,-3.28,
1287,carbaryl,O=C(Oc2cccc1ccccc12)NC,water,0.00017378,5899,-3.76,
1287,carbazochrome,C21=CC(=NNC(=O)N)C(=O)C=C1N(CC2O)C,water,0.001892344,4510105,-2.723,
1287,carbazole,[nH]1c3c(c2c1cccc2)cccc3,water,1.07152E-05,6593,-4.970000002,
1287,carbetamide,N(CC)C(=O)C(OC(=O)Nc1ccccc1)C,water,0.014791084,25761,-1.83,
1287,carbofuran,O=C(Oc2cccc1c2OC(C1)(C)C)NC,water,0.0616595,2468,-1.21,
1287,carbofuran,O=C(Oc2cccc1c2OC(C1)(C)C)NC,water,0.001584893,2468,-2.8,
1287,carbophenothion,Clc1ccc(cc1)SCSP(=S)(OCC)OCC,water,1.8197E-06,12536,-5.739999966,
1287,carbophenothion,Clc1ccc(cc1)SCSP(=S)(OCC)OCC,water,8.91251E-07,12536,-6.04999997,
1287,carbovir,c21n(cnc1c(nc(n2)N)O)C3CC(C=C3)CO,water,0.005011872,65163,-2.3,
1287,carboxin,S1CCOC(=C1C(=O)Nc2ccccc2)C,water,0.000724436,20027,-3.14,
1287,carbutamide,S(=O)(=O)(NC(=O)NCCCC)c1ccc(cc1)N,water,0.006606934,9189,-2.18,
1287,carprofen,O=C(O)C(c3ccc2c1cc(Cl)ccc1nc2c3)C,water,2.00309E-05,2483,-4.698299992,
1287,carvacrol,Oc1c(ccc(c1)C(C)C)C,water,0.008317638,21105867,-2.08,
1287,carvedilol,O(c4ccccc4OCCNCC(O)COc3cccc2c3c1c(cccc1)n2)C,water,5.55009E-05,2487,-4.255699998,
1287,cefaloridine,N1(C=CC=C=C1)CC2=C(N3C(SC2)C(C3=O)NC(=O)Cc4sccc4)C(=O)O,water,0.047863009,5569,-1.32,
1287,cephalothin,O=C2N1/C(=C(\CS[C@@H]1[C@@H]2NC(=O)Cc3sccc3)COC(=O)C)C(=O)O,water,0.001153453,5802,-2.938,
1049,cephradine,O=C2N1/C(=C(\CS[C@@H]1[C@@H]2NC(=O)[C@@H](C/3=C/C\C=C/C\3)N)C)C(=O)O,water,0.058613816,34933,-1.232,
1287,cerebyx,C1(C(=O)N(C(=O)N1)COP(=O)(O)[O-])(c2ccccc2)c3ccccc3,water,0.36982818,50839,-0.432,
1287,cetyl alcohol,OCCCCCCCCCCCCCCCC,water,5.4954E-08,2581,-7.260000691,
1287,chenodeoxycholic acid,C[C@H](CCC(=O)O)[C@H]1CC[C@@H]2[C@@]1(CC[C@H]3[C@H]2[C@@H](C[C@H]4[C@@]3(CC[C@H](C4)O)C)O)C,water,2.70023E-05,9728,-4.568599998,
1277,chlocyphos,O=P1(O)OCC([C@H](O1)c2ccccc2Cl)(C)C,water,0.008970757,9509833,-2.047170922,
1049,chloramphenicol,c1cc(ccc1[C@H]([C@@H](CO)NC(=O)C(Cl)Cl)O)[N+](=O)[O-],water,0.011561122,5744,-1.937,
1287,chloramphenicol,c1cc(ccc1[C@H]([C@@H](CO)NC(=O)C(Cl)Cl)O)[N+](=O)[O-],water,0.012387966,5744,-1.907,
1287,chloramphenicol,c1cc(ccc1[C@H]([C@@H](CO)NC(=O)C(Cl)Cl)O)[N+](=O)[O-],water,0.007762471,5744,-2.11,
1287,chlordane,ClC21C3C(C(C1(Cl)Cl)(C(=C2Cl)Cl)Cl)CC(C3Cl)Cl,water,1.38038E-07,5772,-6.860001342,
1287,chlordane,ClC21C3C(C(Cl)(C1(Cl)Cl)C(=C2Cl)Cl)CC(Cl)C3Cl,water,4.46684E-06,5772,-5.349999992,
1287,chlordene,ClC21C3C(C(Cl)(C1(Cl)Cl)C(=C2Cl)Cl)C=CC3,water,2.29087E-06,18393,-5.639999934,
1287,chlordene,ClC21C3C(C(Cl)(C1(Cl)Cl)C(=C2Cl)Cl)C=CC3,water,4.0738E-06,18393,-5.389999976,
1031,chloroanthraquinone,O=C2c1ccccc1C(=O)c3c2cccc3Cl,water,2.88403E-06,6453,-5.54,
1287,chlorobenzene,Clc1ccccc1,water,0.004168694,7676,-2.38,
1287,chlorobenzene,c1(ccccc1)Cl,water,0.003890451,7676,-2.41,
1287,chlorodibromomethane,C(Br)(Br)Cl,water,0.012589254,29036,-1.9,
1287,chlorodibromomethane,BrC(Br)Cl,water,0.012589254,29036,-1.9,
1287,Chloroethane,ClCC,water,0.087096359,6097,-1.06,
1287,Chloroethene,ClC=C,water,0.017782794,6098,-1.75,
1287,chloroform,ClC(Cl)Cl,water,0.067608298,5977,-1.17,
1287,Chloromethylbenzene,ClCc1ccccc1,water,0.004073803,13840690,-2.39,
1287,chloroneb,Clc1c(cc(c(c1)OC)Cl)OC,water,3.89045E-05,16623,-4.410000006,