Experiment Number (900 series refer to external references),solute,solute SMILES,solvent,concentration (M),csid,solubility,
1287,glafenine,O=C(OCC(O)CO)c1ccccc1Nc2c3ccc(Cl)cc3ncc2,water,2.69153E-05,3355,-4.570000001,
1287,glipizide,O=C(c1ncc(nc1)C)NCCc2ccc(cc2)S(=O)(=O)NC(=O)NC3CCCCC3,water,3.25013E-06,3359,-5.488099936,
1287,glutamine,N[C@@H](CCC(N)=O)C(=O)O,water,0.281838293,5746,-0.55,
1287,glutaric acid,OC(=O)CCCC(=O)O,water,10,723,1,
1287,glybuthiazole,S(=O)(=O)(Nc1sc(nn1)C(C)(C)C)c2ccc(cc2)N,water,0.00018197,10354,-3.74,
1287,glycerol,OC(CO)CO,water,13.18256739,733,1.12,
1287,glyceryl triacetate,O(C(COC(=O)C)COC(=O)C)C(=O)C,water,0.251188643,13835706,-0.6,
969,glycine,O=C(O)CN,water,3.325,730,0.52179165,
1287,glycocholic acid,N(CC(=O)O)C(=O)CCC(C4C3(C(C1C(C2(C(CC1O)CC(CC2)O)C)CC3O)CC4)C)C,water,7.07946E-06,735,-5.14999999,
1287,glycyl-L-leucine,O=C(N[C@H](C(=O)O)CC(C)C)CN,water,0.368722806,83812,-0.4333,
1287,glycyl-L-tryptophan,O=C(O)[C@@H](NC(=O)CN)Cc2c1ccccc1nc2,water,0.013013676,83223,-1.8856,
1287,glycyl-L-tyrosine,O=C(O)[C@@H](NC(=O)CN)Cc1ccc(O)cc1,water,0.185097264,83798,-0.7326,
1287,glycylglycyl-L-leucine,[O-]C(=O)[C@@H](NC(=O)CNC(=O)C[NH3+])CC(C)C,water,0.770548537,5360989,-0.1132,
1049,griseofulvin,O=C1c3c(O[C@]12[C@@H](CC(=O)CC2OC)C)c(Cl)c(OC)cc3OC,water,2.75423E-05,5145918,-4.56,
1287,griseofulvin,O=C2c3c(O[C@@]21C(/OC)=C\C(=O)C[C@H]1C)c(Cl)c(OC)cc3OC,water,8.47618E-05,389934,-4.071799998,
1023,guaifenesin,O(c1ccccc1OC)CC(O)CO,water,0.252,3396,-0.598599459,
1049,guaifenesin,O(c1ccccc1OC)CC(O)CO,water,0.10964782,3396,-0.96,
1287,guaifenesin,O(c1ccccc1OC)CC(O)CO,water,0.186637969,3396,-0.729,
1049,guanine,c1[nH]c2c(n1)c(=O)[nH]c(n2)N,water,8.531E-05,744,-4.069,
1287,guanine,[nH]1cnc2c1N=C(NC2=O)N,water,0.000263027,744,-3.58,
1287,guanine,c1[nH]c2c(n1)c(=O)[nH]c(n2)N,water,3.73766E-05,744,-4.427399998,
1049,haloperidol,c1cc(ccc1C(=O)CCCN2CCC(CC2)(c3ccc(cc3)Cl)O)F,water,1.05925E-05,3438,-4.975,
1152,haloperidol,c1cc(ccc1C(=O)CCCN2CCC(CC2)(c3ccc(cc3)Cl)O)F,water,0.00003566,3438,-4.447818661,
1287,haloperidol,c1cc(ccc1C(=O)CCCN2CCC(CC2)(c3ccc(cc3)Cl)O)F,water,3.71535E-05,3438,-4.429999999,
1287,haloperidol,c1cc(ccc1C(=O)CCCN2CCC(CC2)(c3ccc(cc3)Cl)O)F,water,0.000519996,3438,-3.284,
1287,halothane,BrC(Cl)C(F)(F)F,water,0.019498446,3441,-1.71,
1287,halothane,BrC(Cl)C(F)(F)F,water,0.038904514,3441,-1.41,
1287,hematein,O3CC2(CC1=CC(=O)C(=CC1=C2c4c3c(c(cc4)O)O)O)O,water,0.001995262,9732,-2.7,
1287,hept-1-ene,C(CCC=C)CC,water,0.000186209,11121,-3.729999999,
1287,heptabarbital,N1C(=O)NC(=O)C(C1=O)(CC)C2=CCCCCC2,water,0.0009977,10081,-3.001,
1287,heptabarbital,N1C(=O)NC(=O)C(C1=O)(CC)C2=CCCCCC2,water,0.001,10081,-3,
1287,heptachlor,Cl[C@@H]1/C=C\[C@@H]2[C@@]3(Cl)C(\Cl)=C(\Cl)[C@@](Cl)([C@H]12)C3(Cl)Cl,water,4.7863E-07,554613,-6.320000084,
1287,heptachlor,Cl[C@@H]1/C=C\[C@@H]2[C@@]3(Cl)C(\Cl)=C(\Cl)[C@@](Cl)([C@H]12)C3(Cl)Cl,water,8.31764E-07,554613,-6.07999988,
1287,heptanal,O=CCCCCCC,water,0.019952623,7838,-1.7,
1287,heptane,CCCCCCC,water,2.95121E-05,8560,-4.530000004,
1287,heptyl 2-(6-methoxynaphthalen-2-yl)propanoate,c21c(ccc(c1)C(C(=O)OCCCCCCC)C)cc(cc2)OC,water,7.6384E-08,8512093,-7.116997603,
1287,Heptyl 3-bromo-4-hydroxybenzoate,CCCCCCCOC(=O)c1ccc(c(c1)Br)O,water,3.81066E-05,28295198,-4.419000004,
1287,Heptyl 3-chloro-4-hydroxybenzoate,CCCCCCCOC(=O)c1ccc(c(c1)Cl)O,water,5.91562E-05,28295191,-4.228000003,
1287,Heptyl 4-hydroxy-3-iodobenzoate,CCCCCCCOC(=O)c1ccc(c(c1)I)O,water,2.76058E-05,28295204,-4.558999993,
1287,heptyl 4-hydroxybenzoate,c1(ccc(cc1)O)C(=O)OCCCCCCC,water,8.45279E-05,13515,-4.072999998,
1287,heptyl-4-aminobenzoate,Nc1ccc(cc1)C(=O)OCCCCCCC,water,2.51189E-05,24805,-4.600000005,
1287,heptylamine,NCCCCCCC,water,0.014125375,7835,-1.85,
1221,hesperetin,O=C2c3c(O[C@H](c1ccc(OC)c(O)c1)C2)cc(O)cc3O,water,0.0000045,65234,-5.346787486,
1287,Hex-3-yne,C(C)C#CCC,water,0.01023293,12979,-1.99,
1287,hex-3-ynyl 2-(6-methoxynaphthalen-2-yl)propanoate,c21c(ccc(c1)C(C(=O)OCCC#CCC)C)cc(cc2)OC,water,4.6666E-08,8533494,-7.330999423,
1287,hexachlor,ClC1C(Cl)C(Cl)C(Cl)C(Cl)C1Cl,water,3.0903E-05,707,-4.510000005,
1004,hexachlorobenzene,c1(c(c(c(c(c1Cl)Cl)Cl)Cl)Cl)Cl,water,2.0893E-08,8067,-7.680000006,
1287,hexachlorobenzene,c1(c(c(c(c(c1Cl)Cl)Cl)Cl)Cl)Cl,water,2.7542E-08,8067,-7.560004526,
1287,hexachloroethane,ClC(Cl)(Cl)C(Cl)(Cl)Cl,water,0.000213796,5979,-3.67,
1287,hexacosane,C(CCCCCCCCCCCCC)CCCCCCCCCCCC,water,4.677E-09,11901,-8.33003263,
1287,HEXADECANE,C(CCCCCCCC)CCCCCCC,water,3.981E-09,10540,-8.400007822,
1287,hexanaldehyde,CCCCCC=O,water,0.050118723,5949,-1.3,
1287,Hexane,C(CCC)CC,water,0.000144544,7767,-3.84,
1287,Hexane,CCCCCC,water,0.000144544,7767,-3.84,
1287,hexestrol,Oc1ccc(cc1)C(C(CC)c2ccc(cc2)O)CC,water,3.71535E-05,3480,-4.429999999,
1287,hexobarbital,O=C1N(C(=O)NC(=O)C1(/C2=C/CCCC2)C)C,water,0.001819701,3482,-2.74,
1287,hexobarbital,O=C1N(C(=O)NC(=O)C1(/C2=C/CCCC2)C)C,water,0.001227439,3482,-2.911,
1287,hexobarbital,O=C1N(C(=O)NC(=O)C1(/C2=C/CCCC2)C)C,water,0.002122756,3482,-2.6731,
1287,hexyl 2-(6-methoxynaphthalen-2-yl)propanoate,c21c(ccc(c1)C(C(=O)OCCCCCC)C)cc(cc2)OC,water,2.8642E-08,10442510,-7.54299666,
1287,hexyl 2-hydroxypropanoate,C(=O)(C(O)C)OCCCCCC,water,0.072945751,453372,-1.137,
1287,Hexyl 3-bromo-4-hydroxybenzoate,CCCCCCOC(=O)c1ccc(c(c1)Br)O,water,5.97035E-05,28295190,-4.223999998,
1287,hexyl 3-chloro-4-hydroxy-benzoate,c1(cc(c(cc1)O)Cl)C(=O)OCCCCCC,water,8.18465E-05,25913348,-4.086999999,
1287,Hexyl 4-hydroxy-3-iodobenzoate,CCCCCCOC(=O)c1ccc(c(c1)I)O,water,3.7325E-05,28295199,-4.427999997,
1287,hexyl 4-hydroxybenzoate,c1(ccc(cc1)O)C(=O)OCCCCCC,water,0.00011246,13504,-3.949000002,
1287,hexyl acetate,O(CCCCCC)C(=O)C,water,0.003467369,8568,-2.46,
1287,hexyl acetate,C(=O)(C)OCCCCCC,water,0.003467369,8568,-2.46,
1287,hexyl-4-aminobenzoate,Nc1ccc(cc1)C(=O)OCCCCCC,water,0.000112202,1273924,-3.950000002,
1287,hexylamine,NCCCCCC,water,0.079432823,7811,-1.1,
1287,hexylbenzene,c1ccccc1CCCCCC,water,6.16595E-06,13487,-5.210000001,
1287,hippuric acid,c1ccc(cc1)C(=O)NCC(=O)O,water,0.018281002,451,-1.738,
1287,hippuric acid,c1ccc(cc1)C(=O)NCC(=O)O,water,0.020892961,451,-1.68,
1287,histidine,[nH]1cnc(c1)CC(N)C(=O)O,water,0.295120923,752,-0.53,
1287,hydantoin,N1CC(=O)NC1=O,water,0.398107171,9612,-0.4,
1287,hydrastine,N3(CCc1c(cc2c(c1)OCO2)C3C4OC(=O)c5c4ccc(c5OC)OC)C,water,7.76247E-05,1269,-4.109999998,
1287,hydrazobenzene,N(Nc1ccccc1)c2ccccc2,water,0.001202264,28962,-2.92,
1287,hydrobenzoin,OC(C(O)c1ccccc1)c2ccccc2,water,0.011748976,86143,-1.93,
1049,hydrochlorothiazide,O=S(=O)(c1c(Cl)cc2c(c1)S(=O)(=O)NCN2)N,water,0.001648162,3513,-2.783,
1287,hydrochlorothiazide,O=S(=O)(c1c(Cl)cc2c(c1)S(=O)(=O)NCN2)N,water,0.002398833,3513,-2.62,
1287,hydrocinchonine,N21C(CC(C(C1)CC)CC2)C(O)c3c4c(ncc3)cccc4,water,0.002344229,91899,-2.63,
1287,hydrocinnamic acid,OC(=O)CCc1ccccc1,water,0.038904514,10181339,-1.41,
1049,hydrocortisone,O=C4\C=C2/[C@]([C@H]1[C@@H](O)C[C@@]3([C@@](O)(C(=O)CO)CC[C@H]3[C@@H]1CC2)C)(C)CC4,water,0.000931108,5551,-3.031,
1155,hydrocortisone,O=C4\C=C2/[C@]([C@H]1[C@@H](O)C[C@@]3([C@@](O)(C(=O)CO)CC[C@H]3[C@@H]1CC2)C)(C)CC4,water,0.00086,5551,-3.065501549,
1287,hydrocortisone,O=C4\C=C2/[C@]([C@H]1[C@@H](O)C[C@@]3([C@@](O)(C(=O)CO)CC[C@H]3[C@@H]1CC2)C)(C)CC4,water,0.000571479,5551,-3.243,
1287,hydrocortisone,O=C4\C=C2/[C@]([C@H]1[C@@H](O)C[C@@]3([C@@](O)(C(=O)CO)CC[C@H]3[C@@H]1CC2)C)(C)CC4,water,0.001071519,5551,-2.97,
1287,hydrocortisone,O=C4\C=C2/[C@]([C@H]1[C@@H](O)C[C@@]3([C@@](O)(C(=O)CO)CC[C@H]3[C@@H]1CC2)C)(C)CC4,water,0.000812831,5551,-3.09,
1287,hydrocortisone,O=C4\C=C2/[C@]([C@H]1[C@@H](O)C[C@@]3([C@@](O)(C(=O)CO)CC[C@H]3[C@@H]1CC2)C)(C)CC4,water,0.00089929,5551,-3.0461,
1287,hydrocortisone 21-acetate,OC4(C3(C(C2C(C1(CCC(=O)C=C1CC2)C)C(C3)O)CC4)C)C(=O)COC(=O)C,water,5.01187E-05,3515,-4.300000003,
1287,hydrocortisone acetate,OC4(C3(C(C2C(C1(CCC(=O)C=C1CC2)C)C(=O)C3)CC4)C)C(=O)COC(=O)C,water,0.0001,2760,-4,
1287,hydrocortisone tebutate,OC4(C3(C(C2C(C1(CCC(=O)C=C1CC2)C)C(C3)O)CC4)C)C(=O)COC(=O)CC(C)(C)C,water,3.0903E-06,10073,-5.510000061,
1049,hydroflumethiazide,FC(F)(F)c2c(cc1c(NCNS1(=O)=O)c2)S(=O)(=O)N,water,0.000820352,3521,-3.086,
1287,hydroflumethiazide,FC(F)(F)c2c(cc1c(NCNS1(=O)=O)c2)S(=O)(=O)N,water,0.00108019,3521,-2.9665,
1287,"hydroxy-dimethoxy-(2,2,2-trichloro-1-hydroxyethyl)phosphanium",ClC(Cl)(Cl)C(P(=O)(OC)OC)O,water,0.602559586,5644,-0.22,
1287,"hydroxy-dimethoxy-(2,2,2-trichloro-1-hydroxyethyl)phosphanium",P(=O)(C(C(Cl)(Cl)Cl)O)(OC)OC,water,0.349945167,5644,-0.456,
1287,hydroxyisoandrosterone,OC3C2C1(C(CC(CC1)O)CCC2C4C(C3)(C(=O)CC4)C)C,water,0.00025704,214241,-3.59,
1287,hydroxyurea,N(O)C(=O)N,water,13.18256739,3530,1.12,
1287,hyocholic acid,O=C(O)CC[C@@H](C)[C@@H]4[C@]3(CC[C@H]1[C@@H]([C@H](O)[C@H](O)[C@@H]2C[C@H](O)CC[C@]12C)[C@@H]3CC4)C,water,4.49987E-05,83777,-4.346800004,
1287,hyocholic acid,OC3C4C(C2C(C1C(C(CC1)C(CCC(=O)O)C)(CC2)C)C3O)(CCC(C4)O)C,water,4.46684E-05,433794,-4.350000002,
1287,hyocholic acid,OC3C4(C(C1C(C2(C(C(C1)O)CC(CC2)O)C)C3)CCC4C(CCC(=O)O)C)C,water,4.46684E-05,21235692,-4.350000002,
1287,hyodeoxycholic acid,O=C(O)CC[C@@H](C)[C@@H]4[C@]3(CC[C@H]1[C@@H](C[C@H](O)[C@@H]2C[C@H](O)CC[C@]12C)[C@@H]3CC4)C,water,1.56315E-05,4446908,-4.806000012,
1287,hyodeoxycholic acid,O=C(O)CC[C@@H](C)[C@@H]4[C@]3(CC[C@H]1[C@@H](C[C@H](O)[C@@H]2C[C@H](O)CC[C@]12C)[C@@H]3CC4)C,water,0.000229087,4446908,-3.640000001,
1287,hyodeoxycholic acid,O=C(O)CC[C@@H](C)[C@@H]4[C@]3(CC[C@H]1[C@@H](C[C@H](O)C2C[C@H](O)CC[C@]12C)[C@@H]3CC4)C,water,1.50003E-05,8139282,-4.823899997,
1287,hyodesoxycholic acid,O=C(O)CC[C@@H](C)[C@@H]4[C@]3(CC[C@H]1[C@@H](C[C@H](O)[C@@H]2C[C@H](O)CC[C@]12C)[C@@H]3CC4)C,water,1.50314E-05,4446908,-4.82299999,
1287,hyodesoxycholic acid,O=C(O)CC[C@@H](C)[C@@H]4[C@]3(CC[C@H]1[C@@H](C[C@H](O)[C@@H]2C[C@H](O)CC[C@]12C)[C@@H]3CC4)C,water,0.000151356,4446908,-3.82,
1049,hyoscyamine,O=C(OC2CC1N(C)C(CC1)C2)[C@@H](c3ccccc3)CO,water,0.018879913,58240,-1.724,
1287,hypoxanthine,[nH]1cnc2c1C(=O)NC=N2,water,0.005128614,768,-2.29,
1287,hypoxanthine,N2C=Nc1nc[nH]c1C2=O,water,0.005128614,768,-2.29,
907,ibuprofen,O=C(O)C(c1ccc(cc1)CC(C)C)C,water,0.000,3544,-4.366531544,
907,ibuprofen,O=C(O)C(c1ccc(cc1)CC(C)C)C,water,0.000,3544,-4.261377972,
907,ibuprofen,O=C(O)C(c1ccc(cc1)CC(C)C)C,water,0.000,3544,-4.254925208,
907,ibuprofen,O=C(O)C(c1ccc(cc1)CC(C)C)C,water,0.001,3544,-3.025488307,
1049,ibuprofen,CC(C)Cc1ccc(cc1)C(C)C(=O)O,water,0.000237137,3544,-3.625,
1287,ibuprofen,OC(=O)C(C)c1ccc(cc1)CC(C)C,water,0.000102329,3544,-3.990000001,
1287,ibuproxam,N(O)C(=O)C(C)c1ccc(cc1)CC(C)C,water,0.000912011,61955,-3.04,
1287,Icosane,C(CCCCCCCCCC)CCCCCCCCC,water,6.761E-09,7929,-8.169989064,
1200,imperatorin,O=C/3Oc2c(OC\C=C(/C)C)c1occc1cc2\C=C\3,water,5.90152E-05,9797,-4.229035809,
1287,indane,C1CCc2ccccc21,water,0.000912011,9903,-3.04,
1287,indane,C1CCc2ccccc21,water,0.000933254,9903,-3.03,
1049,indapamide,O=S(=O)(N)c1c(Cl)ccc(c1)C(=O)NN3c2ccccc2CC3C,water,0.000201372,3574,-3.696,
1287,indapamide,O=S(=O)(N)c1c(Cl)ccc(c1)C(=O)NN3c2ccccc2CC3C,water,0.00025704,3574,-3.59,
1287,indazole,[nH]1ncc2c1cccc2,water,0.00691831,8866,-2.16,
1287,indole,[nH]1c2c(cc1)cccc2,water,0.030199517,776,-1.52,
1315,indole-2-carboxylic acid,c1ccc2c(c1)cc([nH]2)C(=O)O,water,0.003818565,65731,-2.418099831,
1287,indole-3-acetic acid,O=C(O)Cc2c1ccccc1nc2,water,0.009183326,780,-2.037,
1287,indole-3-acetic acid,O=C(O)Cc2c1ccccc1nc2,water,0.00851138,780,-2.07,
1287,indoline,N1CCc2c1cccc2,water,0.091201084,9905,-1.04,
1287,indomethacin,Cc1c(c2cc(ccc2n1C(=O)c3ccc(cc3)Cl)OC)CC(=O)O,water,2.39883E-05,3584,-4.620000003,
1287,indomethacin,Cc1c(c2cc(ccc2n1C(=O)c3ccc(cc3)Cl)OC)CC(=O)O,water,1.68267E-05,3584,-4.77399999,
1049,indoprofen,O=C(O)C(c1ccc(cc1)N3C(=O)c2ccccc2C3)C,water,4.9204E-05,3587,-4.308,
1287,inosine,[C@H]1(O[C@@H]([C@H]([C@H]1O)O)CO)[N]2C3=C(N=C2)C(=NC=N3)O,water,0.058884366,5799,-1.23,
1287,Iodobenzene,Ic1ccccc1,water,0.001659587,11087,-2.78,
1287,Iodobenzene,c1(ccccc1)I,water,0.000912011,11087,-3.04,
1287,Iodoethane,ICC,water,0.025118864,6100,-1.6,
1287,Iodoethane,CCI,water,0.025118864,6100,-1.6,
1287,Iodomethane,IC,water,0.1,6088,-1,
1287,Iodomethane,IC,water,0.097723722,6088,-1.01,
1049,iopanoic acid,Ic1c(c(I)c(N)c(I)c1)CC(C(=O)O)CC,water,3.33426E-06,3604,-5.477,
1287,ISMYLNZMKJLINI-UHFFFAOYSA-N,N2(c1ncccc1N(C(=O)c3c2nccc3)CC)CC,water,0.001380384,14080252,-2.86,
1287,isoamyl acetate,O(CCC(C)C)C(=O)C,water,0.012022644,29016,-1.92,
1287,isoamyl salicylate,O(CCC(C)C)C(=O)c1c(cccc1)O,water,0.000691831,6612,-3.16,
1287,isobutyl acetate,O(CC(C)C)C(=O)C,water,0.0616595,7747,-1.21,
1287,isobutyl acetate,C(=O)(C)OCC(C)C,water,0.0616595,7747,-1.21,
1287,isobutyl acrylate,O(CC(C)C)C(=O)C=C,water,0.0616595,7531,-1.21,
1287,isobutyl formate,O(CC(C)C)C=O,water,0.097723722,10492,-1.01,
1287,isobutyl formate,C(=O)OCC(C)C,water,0.097723722,10492,-1.01,
1287,isobutyric acid,OC(=O)C(C)C,water,1.905460718,6341,0.28,
1287,Isocarbamid,N1(CCNC1=O)C(=O)NCC(C)C,water,0.007079458,32837,-2.15,
1287,isocarboxazid,N(NC(=O)c1noc(c1)C)Cc2ccccc2,water,0.003467369,3628,-2.46,
1287,isofenphos,S=P(NC(C)C)(OCC)Oc1c(cccc1)C(=O)OC(C)C,water,6.45654E-05,30459,-4.189999999,
1287,isoguanine,[nH]1cnc2nc(nc(c21)N)O,water,0.000398107,69351,-3.4,
1287,isoniazid,N(N)C(=O)c1ccncc1,water,1.023292992,3635,0.01,
1287,isonoruron,N(C2C1C3C(C(C1)C2)CCC3)C(=O)N(C)C,water,0.000977237,15696,-3.01,
1287,isopentanol,OCCC(C)C,water,0.301995172,29000,-0.52,
1287,isopentanol,C(CC(C)C)O,water,0.301995172,29000,-0.52,
1287,isopentyl formate,O(CCC(C)C)C=O,water,0.030199517,7761,-1.52,
1287,isophorone,O=C1CC(CC(=C1)C)(C)C,water,0.087096359,6296,-1.06,
1287,isoprene,CC(=C)C=C,water,0.009332543,6309,-2.03,
1287,isoprocarb,N(C)C(=O)Oc1c(cccc1)C(C)C,water,0.001380384,16564,-2.86,
1287,Isopropalin,[N+](=O)([O-])c1c(c(cc(c1)C(C)C)[N+](=O)[O-])N(CCC)CCC,water,3.23594E-07,33636,-6.48999954,
1287,Isopropyl (3-chlorophenyl)(4-chlorophenyl)hydroxyacetate,CC(C)OC(=O)C(c1ccc(cc1)Cl)(c2cccc(c2)Cl)O,water,2.95121E-05,28295203,-4.530000004,
1287,isopropyl acetate,O(C(C)C)C(=O)C,water,0.281838293,7627,-0.55,
1287,isopropyl acetate,C(=O)(C)OC(C)C,water,0.281838293,7627,-0.55,
1287,Isopropyl formate,O(C(C)C)C=O,water,0.234422882,11755,-0.63,
1287,Isopropylbenzene,C(C)(C)c1ccccc1,water,0.000537032,7128,-3.27,
1287,isoproterenol,Oc1ccc(cc1O)C(O)CNC(C)C,water,1.380384265,3647,0.14,
1287,isoproturon,O=C(Nc1ccc(cc1)C(C)C)N(C)C,water,0.000314775,33695,-3.502000001,
1287,isoproturon,O=C(Nc1ccc(cc1)C(C)C)N(C)C,water,0.000288403,33695,-3.54,
1287,isoquinoline,n1cc2c(cc1)cccc2,water,0.035481339,8098,-1.45,
1287,isosorbide dinitrate,[N+](=O)([O-])OC2C1OCC(C1OC2)O[N+](=O)[O-],water,0.002344229,3648,-2.63,
1287,isoxanthopterin,C21=C(C(=O)NC(=N1)N)N=CC(=O)N2,water,2.79254E-05,10277,-4.554000006,
907,itaconic acid,O=C(O)\C(=C)CC(=O)O,water,0.59687422,789,-0.224117179,
1287,kasugamycin,N(C)(C)C(=O)Nc1cc(ccc1)OC(=O)NC(C)(C)C,water,0.001174898,276300,-2.93,
1287,KDDQDUIBYASSFC-UHFFFAOYSA-N,FC(F)(F)c1c3c(nc(c1)C)N(c2ncccc2C(=O)N3)CC,water,6.16595E-05,14080222,-4.210000001,
1287,Kebuzone,N1(N(C(=O)C(C1=O)CCC(=O)C)c2ccccc2)c3ccccc3,water,0.000537032,3692,-3.27,
1049,ketoprofen,CC(c1cccc(c1)C(=O)c2ccccc2)C(=O)O,water,0.000522396,3693,-3.282,
1287,ketoprofen,CC(c1cccc(c1)C(=O)c2ccccc2)C(=O)O,water,0.000335738,3693,-3.474,
1287,ketoprofen,OC(=O)C(C)c1cc(ccc1)C(=O)c2ccccc2,water,0.000199526,3693,-3.700000001,
1049,khellin,O=C/1c3c(O\C(=C\1)C)c(OC)c2occc2c3OC,water,0.000751623,3696,-3.124,
1287,khellin,o3c1c(c(c2c(c1OC)OC(=CC2=O)C)OC)cc3,water,0.003981072,3696,-2.4,
1287,kinetin,c21c(ncnc1[nH]cn2)NCc3occc3,water,0.00011324,3698,-3.946000001,
1287,L-arabinose,O1C(C(C(C(C1)O)O)O)O,water,2.454708916,224,0.39,
969,L-asparagine,C([C@@H](C(=O)O)N)C(=O)N,water,0.189,6031,-0.723538196,
969,L-asparagine,C([C@@H](C(=O)O)N)C(=O)N,water,0.226,6031,-0.645891561,
1287,L-asparagine,C([C@@H](C(=O)O)N)C(=O)N,water,0.051003502,6031,-1.2924,
1287,L-asparagine,C([C@@H](C(=O)O)N)C(=O)N,water,0.181970086,6031,-0.74,
1287,l-camphoronic acid,OC(=O)C(C(C)(C)C(=O)O)(CC(=O)O)C,water,0.512861384,92863,-0.29,
1287,L-carvone,O=C1CC(CC=C1C)C(=C)C,water,0.008709636,21106424,-2.06,
1287,l-dihydrocarvone,O=C1C(CCC(C1)C(=C)C)C,water,0.006606934,22881,-2.18,
969,L-histidine,O=C(O)[C@@H](N)Cc1cncn1,water,0.272,6038,-0.565431096,
1287,L-leucyl-L-tryptophan,[O-]C(=O)[C@@H](NC(=O)[C@@H]([NH3+])CC(C)C)Cc2c1ccccc1nc2,water,0.076243004,5360459,-1.1178,
1287,L-leucyl-L-tyrosine,O=C(O)[C@@H](NC(=O)[C@@H](N)CC(C)C)Cc1ccc(O)cc1,water,0.026497201,63589,-1.5768,
1287,L-leucyl-L-valine,[O-]C(=O)[C@@H](NC(=O)[C@@H]([NH3+])CC(C)C)C(C)C,water,0.668651772,5361219,-0.1748,
1287,L-leucylglycyl-glycine,O=C(NCC(=O)O)CNC(=O)[C@@H](N)CC(C)C,water,2.030486003,64073,0.3076,
1287,l-menthone,O=C1C(CCC(C1)C)C(C)C,water,0.003235937,6720,-2.49,
1161,L-phenylalanine,c1ccc(cc1)C[C@@H](C(=O)O)N,water,0.149538075,5910,-0.825248213,
1287,L-tryptophyl-L-leucine,[O-]C(=O)[C@@H](NC(=O)[C@@H]([NH3+])Cc2c1ccccc1nc2)CC(C)C,water,0.017330057,5365198,-1.7612,
1287,L-tryptophylglycine,O=C(O)CNC(=O)[C@@H](N)Cc2c1ccccc1nc2,water,0.14236394,87619,-0.8466,
1287,L-tyrosine,c1cc(ccc1C[C@@H](C(=O)O)N)O,water,0.000877001,5833,-3.057,
1287,L-tyrosine,c1cc(ccc1C[C@@H](C(=O)O)N)O,water,0.002691535,5833,-2.57,
1287,L-tyrosyl-L-leucine,O=C(O)[C@@H](NC(=O)[C@@H](N)Cc1ccc(O)cc1)CC(C)C,water,0.00849376,78540,-2.0709,
1287,L-tyrosylglycine,[O-]C(=O)CNC(=O)[C@H](Cc1ccc(O)cc1)[NH3+],water,0.079744364,5384746,-1.0983,
1287,L-tyrosylglycylglycine,O=C(O)CNC(=O)CNC(=O)[C@@H](N)Cc1ccc(O)cc1,water,0.033861017,110288,-1.4703,
1287,L-valine,CC(C)[C@@H](C(=O)O)N,water,0.490004423,6050,-0.3098,
1287,L-valyl-L-valine,O=C(N[C@H](C(=O)O)C(C)C)[C@@H](N)C(C)C,water,0.393006741,96710,-0.4056,
1287,labetalol,O=C(c1cc(ccc1O)C(O)CNC(C)CCc2ccccc2)N,water,0.050118723,3734,-1.3,
1287,lactose,O1C(C(C(C(C1CO)O)O)O)OC2C(OC(C(C2O)O)O)CO,water,0.575439937,288,-0.24,
969,lamivudine,O=C1/N=C(/N)\C=C/N1[C@@H]2O[C@@H](SC2)CO,water,0.04973,66068,-1.303381541,
969,lamotrigine,Clc2c(Cl)c(c1nnc(nc1N)N)ccc2,water,0.00073,3741,-3.13667714,
907,lauric acid,CCCCCCCCCCCC(=O)O,water,2.40118E-05,3756,-4.619574559,
1287,lemonol,OCC=C(CCC=C(C)C)C,water,0.003467369,13849989,-2.46,
1287,lenacil,N2(C(=O)NC1=C(CCC1)C2=O)C3CCCCC3,water,2.5704E-05,15699,-4.589999997,
1287,leptophos,Brc1c(cc(c(c1)Cl)OP(=S)(OC)c2ccccc2)Cl,water,2.18776E-06,28496,-5.659999925,
1287,levalbuterol,OCc1cc(ccc1O)[C@@H](O)CNC(C)(C)C,water,0.060255959,110192,-1.22,
1287,levodopa,O=C(O)[C@@H](N)Cc1cc(O)c(O)cc1,water,0.034040819,5824,-1.468,
1287,levodopa,O=C(O)[C@@H](N)Cc1cc(O)c(O)cc1,water,0.025118864,5824,-1.6,
1287,librium,c21c(ccc(c1)Cl)N=C(C[N+](=C2c3ccccc3)[O-])NC,water,0.00040738,10248513,-3.39,
1287,lidocaine,O=C(Nc1c(cccc1C)C)CN(CC)CC,water,0.016443717,3548,-1.784,
1287,lidocaine,N(CC)(CC)CC(=O)Nc1c(cccc1C)C,water,0.017378008,3548,-1.76,
1287,linalool,OC(CCC=C(C)C)(C)C=C,water,0.01023293,13849981,-1.99,
1287,lindane,Cl[C@H]1[C@H](Cl)[C@@H](Cl)[C@@H](Cl)[C@H](Cl)[C@H]1Cl,water,3.71535E-05,10481896,-4.429999999,
1049,linuron,Clc1ccc(NC(=O)N(OC)C)cc1Cl,water,0.000254683,9130,-3.594,
1287,linuron,Clc1ccc(NC(=O)N(OC)C)cc1Cl,water,0.000301995,9130,-3.52,
1287,lomefloxacin,Fc1c(c(F)c2c(c1)C(=O)C(\C(=O)O)=C/N2CC)N3CC(NCC3)C,water,0.004647292,3811,-2.3328,
969,lorazepam,Clc3ccccc3C/2=N/C(O)C(=O)Nc1c\2cc(Cl)cc1,water,0.00019,3821,-3.721246399,
1287,lorazepam,Clc3ccccc3C/2=N/C(O)C(=O)Nc1c\2cc(Cl)cc1,water,0.000251189,3821,-3.6,
1287,lovastatin,O1C(CC(CC1=O)O)CCC3C2C(CC(C=C2C=CC3C)C)OC(=O)C(CC)C,water,9.77237E-07,3825,-6.010000098,
1287,m-aminoacetophenone,Nc1cc(ccc1)C(=O)C,water,0.052480746,21106518,-1.28,
1287,m-chloronitrobenzene,[N+](=O)([O-])c1cc(ccc1)Cl,water,0.001698244,21106013,-2.77,
1287,m-chlorotoluene,c1(cc(ccc1)Cl)C,water,0.000301995,13875230,-3.52,
1287,m-cresol,Oc1cc(ccc1)C,water,0.208929613,21105871,-0.68,
1287,m-tolyl methylcarbamate,N(C)C(=O)Oc1cc(ccc1)C,water,0.015848932,13684,-1.8,
1287,malathion,O=C(OCC)C(SP(=S)(OC)OC)CC(=O)OCC,water,0.000438531,3864,-3.358,
1287,malathion,O=C(OCC)C(SP(=S)(OC)OC)CC(=O)OCC,water,0.00042658,3864,-3.37,