Experiment Number (900 series refer to external references),solute,solute SMILES,solvent,concentration (M),csid,solubility,
1287,4-(methyl-propylamino)diazenylbenzoic acid,c1(ccc(cc1)C(=O)O)N=NN(CCC)C,water,0.036982818,23109735,-1.432,
1287,4-(pyridine-3-carbonylamino)benzoic acid,c1(ccc(cc1)C(=O)O)NC(=O)c2cnccc2,water,0.000829851,72129,-3.081,
1287,"4-[(1-methoxy-1-oxo-3-phenylpropan-2-yl)amino]-4-oxo-3-[(2,2,2-trifluoroacetyl)amino]butanoic acid",C(C(=O)NC(Cc1ccccc1)C(=O)OC)(NC(=O)C(F)(F)F)CC(=O)O,water,0.002208005,2770551,-2.656,
1287,4-[(10-Methyl-9-anthryl)methyl]morpholine,Cc1c2ccccc2c(c3c1cccc3)CN4CCOCC4,water,4.01791E-05,28295195,-4.396000001,
1287,"4-[(10,13-dimethyl-3-oxo-1,2,6,7,8,9,11,12,14,15,16,17-dodecahydrocyclopenta[a]phenanthren-17-yl)oxy]-4-oxobutanoic acid",C41(C(C3C(CC1)C2(C(=CC(=O)CC2)CC3)C)CCC4OC(=O)CCC(=O)O)C,water,8.26038E-06,504306,-5.083000026,
1287,4-[(4-aminophenyl)sulfonylamino]benzenesulfonamide,S(=O)(=O)(c1ccc(cc1)N)Nc2ccc(cc2)S(=O)(=O)N,water,0.001741807,61646,-2.759,
1287,4-[(4-carboxyphenyl)-phenylphosphoryl]benzoic acid,P(=O)(c1ccc(cc1)C(=O)O)(c2ccc(cc2)C(=O)O)c3ccccc3,water,9.88553E-07,63128,-6.005000042,
1287,4-[(E)-(4-hydroxyphenyl)diazenyl]benzoic acid,c1(ccc(cc1)N=Nc2ccc(cc2)O)C(=O)O,water,4.18794E-05,13454534,-4.377999995,
1287,4-[2-(4-oxopentan-2-ylideneamino)ethylimino]pentan-2-one,C(C(=NCCN=C(CC(=O)C)C)C)C(=O)C,water,0.001496236,122332,-2.825,
1287,"4-[3-(4-hydroxyphenyl)-1,1-dioxobenzo[c]oxathiol-3-yl]phenol",C2(c1c(cccc1)S(=O)(=O)O2)(c3ccc(cc3)O)c4ccc(cc4)O,water,0.000847227,4602,-3.072,
1287,4-[3-(dimethylaminomethyl)-4-hydroxybenzoyl]thiophene-2-sulfonamide,c1(cc(sc1)S(=O)(=O)N)C(=O)c2cc(c(cc2)O)CN(C)C,water,0.02917427,10442350,-1.535,
1287,4-[3-(morpholin-4-ylmethyl)benzoyl]thiophene-2-sulfonamide,c1(cc(sc1)S(=O)(=O)N)C(=O)c2cc(ccc2)CN3CCOCC3,water,0.01191242,8492309,-1.924,
1287,4-[3-[(2-methylpropylamino)methyl]benzoyl]thiophene-2-sulfonamide,c1(cc(cs1)C(=O)c2cc(ccc2)CNCC(C)C)S(=O)(=O)N,water,0.008994976,8648631,-2.046,
1287,4-[3-[(3-methylbutylamino)methyl]benzoyl]thiophene-2-sulfonamide,c1(cc(cs1)C(=O)c2cc(ccc2)CNCCC(C)C)S(=O)(=O)N,water,0.031768741,10443102,-1.498,
1287,4-[3-[(butan-2-ylamino)methyl]phenyl]sulfonylthiophene-2-sulfonamide,S(=O)(=O)(c1cc(sc1)S(=O)(=O)N)c2cc(ccc2)CNC(CC)C,water,0.047097733,8153184,-1.327,
1287,4-[3-[(propan-2-ylamino)methyl]phenyl]sulfonylthiophene-2-sulfonamide,S(=O)(=O)(c1cc(sc1)S(=O)(=O)N)c2cc(ccc2)CNC(C)C,water,0.027733201,8492763,-1.557,
1287,4-[4-(4-chlorophenyl)-4-hydroxypiperidin-1-yl]-1-phenylbutan-1-one,C2(c1ccc(cc1)Cl)(CCN(CC2)CCCC(=O)c3ccccc3)O,water,0.000445656,9870875,-3.351,
1287,4-[4-(4-fluorophenyl)-4-hydroxypiperidin-1-yl]-1-phenylbutan-1-one,C2(c1ccc(cc1)F)(CCN(CC2)CCCC(=O)c3ccccc3)O,water,0.001078947,10469251,-2.967,
1287,"4-[4-(5-Phenyl-1,3-oxazol-2-yl)benzyl]morpholine",c1ccc(cc1)c2cnc(o2)c3ccc(cc3)CN4CCOCC4,water,4.4978E-05,28295193,-4.347000005,
1287,4-[4-(butylaminomethyl)benzoyl]thiophene-2-sulfonamide,c1(cc(cs1)C(=O)c2ccc(cc2)CNCCCC)S(=O)(=O)N,water,0.00616595,8558827,-2.21,
1287,4-[4-(butylaminomethyl)phenyl]sulfonylthiophene-2-sulfonamide,S(=O)(=O)(c1cc(sc1)S(=O)(=O)N)c2ccc(cc2)CNCCCC,water,0.020701413,8561070,-1.684,
1287,4-[4-(morpholin-4-ylmethyl)benzoyl]thiophene-2-sulfonamide,S(=O)(=O)(c1cc(cs1)C(=O)c2ccc(cc2)CN3CCOCC3)N,water,0.030060763,8492308,-1.522,
1287,4-[4-[(2-methylpropylamino)methyl]benzoyl]thiophene-2-sulfonamide,c1(cc(cs1)C(=O)c2ccc(cc2)CNCC(C)C)S(=O)(=O)N,water,0.008994976,8581214,-2.046,
1287,4-[4-[(2-methylpropylamino)methyl]phenyl]sulfonylthiophene-2-sulfonamide,S(=O)(=O)(c1cc(sc1)S(=O)(=O)N)c2ccc(cc2)CNCC(C)C,water,0.069342581,10443123,-1.159,
1287,4-[4-[(phenylmethylamino)methyl]benzoyl]thiophene-2-sulfonamide,c1(cc(cs1)C(=O)c2ccc(cc2)CNCc3ccccc3)S(=O)(=O)N,water,0.000425598,10443615,-3.371,
1287,4-[4-[(tert-butylamino)methyl]phenyl]sulfonylthiophene-2-sulfonamide,S(=O)(=O)(c1cc(sc1)S(=O)(=O)N)c2ccc(cc2)CNC(C)(C)C,water,0.010592537,8267226,-1.975,
1287,4-[4-hydroxy-3-[(methyl-(2-methylpropyl)amino)methyl]benzoyl]thiophene-2-sulfonamide,c1(cc(sc1)S(=O)(=O)N)C(=O)c2cc(c(cc2)O)CN(CC(C)C)C,water,0.038194427,8627909,-1.418,
1287,4-[4-Hydroxy-4-(4-methylphenyl)-1-piperidinyl]-1-phenyl-1-butanone,Cc1ccc(cc1)C2(CCN(CC2)CCCC(=O)c3ccccc3)O,water,0.024043628,28295077,-1.619,
1287,"4-[6-(2-chloro-4-methoxy-phenoxy)hexyl]heptane-3,5-dione",c1(c(ccc(c1)OC)OCCCCCCC(C(=O)CC)C(=O)CC)Cl,water,5.42001E-06,38124,-5.265999992,
1287,4-acetamidophenyl dihydrogen phosphate,O(c1ccc(cc1)NC(=O)C)P(=O)(O)[O-],water,1.355189412,8352502,0.132,
1287,4-amino-1-[4-fluoro-5-(hydroxymethyl)oxolan-2-yl]pyrimidin-2-one,N2(C1OC(C(C1)F)CO)C(=O)N=C(C=C2)N,water,0.065463617,316041,-1.184,
1287,4-amino-1-[5-(hydroxymethyl)oxolan-2-yl]pyrimidin-2-one,C2(N1C(=O)N=C(C=C1)N)OC(CC2)CO,water,0.368977599,5516,-0.433,
1287,4-Amino-2-[(ethoxycarbonothioyl)sulfanyl]-4-oxobutanoic acid,CCOC(=S)SC(CC(=O)N)C(=O)O,water,0.019998619,28295082,-1.699,
1287,"4-amino-3-methyl-6-phenyl-1,2,4-triazin-5-one",C1(=NN=C(N(C1=O)N)C)c2ccccc2,water,0.008994976,35563,-2.046,
1287,"4-Amino-3,5,6-trichloropyridine-2-carboxylic acid",Clc1nc(c(c(c1Cl)N)Cl)C(=O)O,water,0.001778279,15170,-2.75,
1287,"4-Amino-6,7-dimethoxy-2-benzofuran-1(3H)-one",COc1cc(c2c(c1OC)C(=O)OC2)N,water,0.008375293,28295097,-2.077,
1287,"4-Amino-N-(1,11,11-trimethyl-3,5-diazatricyclo[6.2.1.02,7]undeca-2,4,6-trien-4-yl)benzenesulfonamide",C41(C(C(c2c1nc(nc2)NS(=O)(=O)c3ccc(cc3)N)CC4)(C)C)C,water,8.37529E-05,10469152,-4.077000001,
1287,"4-amino-N-(1,3,4-thiadiazol-2-yl)benzenesulfonamide",c1(ccc(cc1)N)S(=O)(=O)Nc2scnn2,water,0.001355189,204775,-2.868,
1287,4-Amino-N-(2-methyl-1-naphthyl)benzenesulfonamide,Cc1ccc2ccccc2c1NS(=O)(=O)c3ccc(cc3)N,water,3.1989E-05,28295201,-4.495000001,
1287,4-Amino-N-(3H-pyrrol-2-yl)benzenesulfonamide,c1cc(ccc1N)S(=O)(=O)/N=C/2\CC=CN2,water,0.020230192,28295080,-1.694,
1287,"4-amino-N-(4-methyl-1,3-thiazol-2-yl)benzenesulfonamide",S(=O)(=O)(c1ccc(cc1)N)Nc2nc(cs2)C,water,0.001233105,61501,-2.909,
1287,"4-amino-N-(4,5-dimethylpyrimidin-2-yl)benzenesulfonamide",c1(ccc(cc1)N)S(=O)(=O)Nc2nc(c(cn2)C)C,water,0.000717794,201522,-3.144,
1287,"4-amino-N-(5-methyl-8-propan-2-yl-5,6,7,8-tetrahydroquinazolin-2-yl)benzenesulfonamide",c31c(nc(nc1)NS(=O)(=O)c2ccc(cc2)N)C(CCC3C)C(C)C,water,6.65273E-05,10469146,-4.176999998,
1287,"4-amino-N-(5-propan-2-yl-1,3,4-thiadiazol-2-yl)benzenesulfonamide",c1(ccc(cc1)N)S(=O)(=O)Nc2sc(nn2)C(C)C,water,0.000385478,59830,-3.414,
1287,"4-amino-N-(5-propyl-1,3,4-thiadiazol-2-yl)benzenesulfonamide",c1(ccc(cc1)N)S(=O)(=O)Nc2sc(nn2)CCC,water,0.00049204,311117,-3.308,
1287,"4-amino-N-(5,6,7,8-tetrahydroquinazolin-2-yl)benzenesulfonamide",c1(ccc(cc1)N)S(=O)(=O)Nc2nc3c(cn2)CCCC3,water,0.000223357,10469145,-3.651000001,
1287,4-Amino-N-(6-iodo-3-pyridinyl)benzenesulfonamide,c1cc(ccc1N)S(=O)(=O)Nc2ccc(nc2)I,water,0.015452544,28295087,-1.811,
1287,"4-amino-N-[1,3-dihydroxy-2-(hydroxymethyl)-2-propanyl]benzenesulfonamide",c1(ccc(cc1)N)S(=O)(=O)NC(CO)(CO)CO,water,0.040179081,24835442,-1.396,
1287,"4-amino-N-[5-(2-methylpropyl)-1,3,4-thiadiazol-2-yl]benzenesulfonamide",S(=O)(=O)(c1ccc(cc1)N)Nc2sc(nn2)CC(C)C,water,0.000150314,310979,-3.822999999,
1157,4-amino-N-methylbenzamide,O=C(c1ccc(N)cc1)NC,water,0.000746282,205483,-3.127096949,
1287,4-aminoacetanilide,N(c1ccc(cc1)N)C(=O)C,water,0.104712855,10297844,-0.98,
936,4-aminobenzoic acid,O=C(O)c1ccc(N)cc1,water,0.043,953,-1.367600399,
1049,4-aminobenzoic acid,O=C(O)c1ccc(N)cc1,water,0.101624869,953,-0.993,
1287,4-aminobenzoic acid,Nc1ccc(cc1)C(=O)O,water,0.398107171,953,-0.4,
1287,"4-aminonaphthalene-1,2-dione",c21c(cccc1)C(=CC(=O)C2=O)N,water,0.000144212,65740,-3.841,
1287,4-aminophenol,Nc1ccc(cc1)O,water,0.158489319,392,-0.8,
1287,4-anilino-4-oxobut-2-enoic acid,c1(ccccc1)NC(=O)C=CC(=O)O,water,0.001892344,581433,-2.723,
1287,4-bromo-3-nitrobenzoic acid,c1(c(ccc(c1)C(=O)O)Br)[N+](=O)[O-],water,0.001081434,203115,-2.966,
1287,"4-Bromo-5-(4-bromophenyl)dihydro-2,3-furandione",c1cc(ccc1C2C(C(=O)C(=O)O2)Br)Br,water,0.000897429,28295145,-3.047,
1287,"4-bromo-6,7-dimethoxy-3H-2-benzofuran-1-one",c21c(c(cc(c1OC)OC)Br)COC2=O,water,0.00011722,10469304,-3.930999998,
1287,4-Bromophenol,Brc1ccc(cc1)O,water,0.081283052,13842573,-1.09,
1287,4-chloro-2-[(5-chloro-2-hydroxyphenyl)methyl]phenol,Clc1cc(c(cc1)O)Cc2c(ccc(c2)Cl)O,water,0.000112202,2929,-3.950000002,
1287,4-Chloro-3-[(E)-(4-hydroxyphenyl)diazenyl]benzoic acid,c1cc(ccc1/N=N/c2cc(ccc2Cl)C(=O)O)O,water,8.33681E-05,28295185,-4.079000002,
1287,4-Chloro-3-methylphenol,Clc1c(cc(cc1)O)C,water,0.026915348,21106018,-1.57,
907,4-chloro-3-nitrobenzoic acid,O=[N+]([O-])c1cc(ccc1Cl)C(=O)O,water,0.002,7044,-2.769551079,
1287,4-chloro-3-nitrobenzoic acid,O=[N+]([O-])c1cc(ccc1Cl)C(=O)O,water,0.002594179,7044,-2.586,
1287,"4-Chloro-3,5-dimethylphenol",Clc1c(cc(cc1C)O)C,water,0.001584893,21106017,-2.8,
1287,4-chloro-5-methylamino-2-[3-(trifluoromethyl)phenyl]pyridazin-3-one,FC(F)(F)c1cc(ccc1)N2N=CC(=C(C2=O)Cl)NC,water,9.12011E-05,31131,-4.04,
1287,"4-chloro-N-(2,6-dimethylphenyl)-2-hydroxy-5-sulfamoylbenzamide",Clc1c(cc(c(c1)O)C(=O)Nc2c(cccc2C)C)S(=O)(=O)N,water,0.000162181,24795,-3.789999999,
1287,4-chloro-N-(4-chlorophenyl)sulfonylbenzenesulfonamide,c1(ccc(cc1)Cl)S(=O)(=O)NS(=O)(=O)c2ccc(cc2)Cl,water,0.003311311,218561,-2.48,
1287,"4-Chloro-N,N-dimethylbenzamide",C(=O)(c1ccc(cc1)Cl)N(C)C,water,0.100925289,75942,-0.996,
1287,4-Chloroaniline,Clc1ccc(cc1)N,water,0.021877616,13869339,-1.66,
1287,4-chloroanisole,COc1ccc(cc1)Cl,water,0.001659587,11667,-2.78,
1035,4-chlorobenzoic acid,O=C(O)c1ccc(Cl)cc1,water,0.000275423,6079,-3.56,
1287,4-chlorobenzoic acid,O=C(O)c1ccc(Cl)cc1,water,0.000489779,6079,-3.31,
1159,4-chlorobiphenyl,Clc2ccc(c1ccccc1)cc2,water,0.000007,15489,-5.15490196,
1287,4-chlorobiphenyl,Clc2ccc(c1ccccc1)cc2,water,6.30957E-06,15489,-5.200000031,
1287,4-chlorobiphenyl,Clc2ccccc2c1ccccc1,water,2.88403E-05,218253,-4.54,
1287,4-chlorobut-2-ynyl N-(3-chlorophenyl)carbamate,ClCC#CCOC(=O)Nc1cc(ccc1)Cl,water,4.2658E-05,7270,-4.369999999,
1287,4-chloronitrobenzene,O=[N+]([O-])c1ccc(Cl)cc1,water,0.001202264,21106020,-2.92,
1287,4-chlorophenol,Clc1ccc(cc1)O,water,0.199526231,13875219,-0.7,
1287,4-chlorotoluene,Cc1ccc(cc1)Cl,water,0.000831764,13875160,-3.08,
1287,"4-dimethylaminobenzene-1,3-dicarboxylic acid",c1(c(ccc(c1)C(=O)O)N(C)C)C(=O)O,water,0.009660509,13923490,-2.015,
1287,4-dimethylaminodiazenylbenzoic acid,c1(ccc(cc1)N=NN(C)C)C(=O)O,water,0.159955803,22074,-0.796,
1287,"4-ethoxy-2-oxido-3-phenylsulfonyl-1,2,5-oxadiazol-2-ium",S(=O)(=O)(c1c(no[n+]1[O-])OCC)c2ccccc2,water,5.70164E-05,8396573,-4.244000002,
1287,4-Ethoxy-3-methoxybenzaldehyde,C(=O)c1cc(c(cc1)OCC)OC,water,0.006456542,60464,-2.19,
1287,4-Fluoro-3-nitrobenzoic acid,c1(c(ccc(c1)C(=O)O)F)[N+](=O)[O-],water,0.026363314,61302,-1.579,
1287,4-Fluoro-9-acridinamine,c1ccc2c(c1)c(c3cccc(c3n2)F)N,water,0.022130947,28295078,-1.655,
907,4-fluorobenzoic acid,O=C(O)c1ccc(F)cc1,water,0.009,9579,-2.067323341,
1287,4-formylacetanilide,N(c1ccc(cc1)C=O)C(=O)C,water,0.02630268,66572,-1.58,
1287,4-heptanol,OC(CCC)CCC,water,0.039810717,11029,-1.4,
1287,4-heptanol,CCCC(CCC)O,water,0.039810717,11029,-1.4,
1287,4-heptanone,O=C(CCC)CCC,water,0.050118723,28986,-1.3,
1287,4-hexylresorcinol,Oc1c(ccc(c1)O)CCCCCC,water,0.002570396,21106121,-2.59,
1287,4-Hydroxy-1-methylbenzo[f]quinolin-3(4H)-one,Cc1cc(=O)n(c2c1c3ccccc3cc2)O,water,9.977E-05,28295184,-4.001000002,
1287,4-hydroxy-2-methylbenzenesulfonic acid,c1(c(cc(cc1)O)C)S(=O)(=O)O,water,0.509330871,73586,-0.293,
1287,"4-hydroxy-3-methoxy-17-methyl-7,8-didehydrohasubanan-6-one",N1(C42C(CC1)(CC(=O)C=C2)c3c(ccc(c3O)OC)CC4)C,water,0.013489629,23076088,-1.87,
1287,"4-Hydroxy-3,5-diiodobenzonitrile",Ic1c(c(cc(c1)C#N)I)O,water,0.000245471,14774,-3.609999999,
1287,4-hydroxy-5-methoxyphthalic acid,c1(c(cc(c(c1)OC)O)C(=O)O)C(=O)O,water,0.06180164,40336,-1.209,
1287,"4-hydroxy-5,6-dihydro-4H-thieno[5,4-b]thiopyran-2-sulfonamide",c21c(sc(c1)S(=O)(=O)N)SCCC2O,water,0.00254683,10438329,-2.594,
1287,"4-hydroxy-7-oxo-5,6-dihydro-4H-thieno[5,4-b]thiopyran-2-sulfonamide",c1(sc2c(c1)C(CCS2=O)O)S(=O)(=O)N,water,0.044874539,10438770,-1.348,
1287,"4-hydroxy-7,7-dioxo-5,6-dihydro-4H-thieno[5,4-b]thiopyran-2-sulfonamide",c21c(cc(s1)S(=O)(=O)N)C(CCS2(=O)=O)O,water,0.022387211,10439285,-1.65,
1287,4-hydroxyazobenzene,c1(ccc(cc1)O)N=Nc2ccccc2,water,0.000113501,10296254,-3.944999998,
909,4-hydroxybenzaldehyde,O=Cc1ccc(O)cc1,water,0.113,123,-0.946911266,-0.946911266
1157,4-hydroxybenzeneacetamide,O=C(N)Cc1ccc(O)cc1,water,0.004111359,78467,-2.386014548,
953,4-hydroxybenzoic acid,O=C(O)c1ccc(O)cc1,water,0.037,132,-1.435040943,
1287,4-hydroxybenzoic acid,Oc1ccc(cc1)C(=O)O,water,0.038904514,132,-1.41,
1287,4-hydroxybutyl N-[6-(4-hydroxybutoxycarbonylamino)hexyl]carbamate,C(=O)(NCCCCCCNC(=O)OCCCCO)OCCCCO,water,0.01177606,10469295,-1.929,
954,4-hydroxyphenylacetic acid,O=C(O)Cc1ccc(O)cc1,water,0.114,124,-0.944218146,
1287,4-hydroxypyridine,n1ccc(cc1)O,water,10.47128548,11787,1.02,
1287,4-iodophenol,c1cc(ccc1O)I,water,0.019310788,10432,-1.7142,
1287,4-methoxy-2'-hydroxychalcone,c1(c(cccc1)O)C(=O)C=Cc2ccc(cc2)OC,water,1.99986E-06,4488445,-5.698999972,
1287,4-methoxyacetanilide,N(c1ccc(cc1)OC)C(=O)C,water,0.050118723,5622,-1.3,
1287,"4-methoxybenzene-1,3-dicarboxylic acid",c1(c(ccc(c1)C(=O)O)OC)C(=O)O,water,0.000772681,67700,-3.112,
1287,4-methoxybenzohydrazide,c1(ccc(cc1)OC)C(=O)NN,water,0.070631755,69248,-1.151,
961,4-methoxybenzoic acid,COc1ccc(cc1)C(O)=O,water,0.003,10181338,-2.45798838,
1287,4-Methoxycarbonylbenzoic acid,c1(ccc(cc1)C(=O)O)C(=O)OC,water,0.001076465,14760,-2.968,
1287,"4-methoxyfuro[3,2-g]chromen-7-one",c21c(c3c(cc1OC(=O)C=C2)occ3)OC,water,0.000251189,2265,-3.6,
910,4-methoxyphenylacetic acid,O=C(O)Cc1ccc(OC)cc1,water,0.036,7406,-1.442411824,
1287,4-methyl-1-pentanol,OCCCC(C)C,water,0.072443596,11793,-1.14,
1287,4-methyl-1-pentanol,C(CCC(C)C)O,water,0.072443596,11793,-1.14,
1287,4-methyl-1-pentene,C=CCC(C)C,water,0.00057544,12201,-3.24,
1287,4-methyl-2-(4-methylphenyl)diazenylaniline,c1(c(ccc(c1)C)N)N=Nc2ccc(cc2)C,water,0.000125026,497232,-3.903,
1287,4-methyl-2-pentanol,OC(CC(C)C)C,water,0.158489319,7622,-0.8,
1287,4-methyl-2-pentanol,CC(CC(C)C)O,water,0.158489319,7622,-0.8,
1287,4-methyl-2-pentanone,O=CCCCCC,water,0.03801894,7621,-1.42,
1287,4-methyl-2-pentanone,O=CCCCCC,water,0.181970086,7621,-0.74,
1287,4-methylaniline,Nc1ccc(cc1)C,water,0.0616595,13835151,-1.21,
913,4-methylbenzoic acid,O=C(O)c1ccc(cc1)C,water,0.003,7190,-2.596192171,-2.596192171
1287,4-methylbenzoic acid,Cc1ccc(cc1)C(=O)O,water,0.002511886,7190,-2.6,
1287,4-methylcyclohexanol,OC1CCC(CC1)C,water,0.131825674,11040,-0.88,
1287,4-methylpteridine,n2c1nccnc1c(nc2)C,water,0.338844156,512569,-0.47,
1287,4-methylsulfanylpteridine,n1c2c(ncc1)ncnc2SC,water,0.004365158,218576,-2.36,
1287,4-methylsulfanylpteridine,n1c2c(ncc1)ncnc2SC,water,0.004315191,218576,-2.365,
1287,4-methylsulfonylbenzenecarboximidamide,S(=O)(=O)(c1ccc(cc1)C(=N)N)C,water,0.041495404,173103,-1.382,
1287,4-naphthalen-1-yl-4-oxobutanoic acid,c21c(cccc1cccc2)C(=O)CCC(=O)O,water,0.00033037,244517,-3.481,
1287,4-naphthalen-2-yl-4-oxobutanoic acid,c21c(ccc(c1)C(=O)CCC(=O)O)cccc2,water,0.000140929,190750,-3.851,
1287,"4-nitro-2,6,7-trioxa-1$l^{5}-phosphabicyclo[2.2.2]octane 1-oxide",C21([N+](=O)[O-])COP(=O)(OC1)OC2,water,0.153815464,2303438,-0.813,
1287,4-nitro-3-phenylphenol,c1(c(ccc(c1)O)[N+](=O)[O-])-c2ccccc2,water,0.000232274,21376877,-3.633999999,
1287,4-nitroacetanilide,[N+](=O)([O-])c1ccc(cc1)NC(=O)C,water,0.002041738,7407,-2.69,
1287,4-nitroaniline,[N+](=O)([O-])c1ccc(cc1)N,water,0.004265795,13846959,-2.37,
1287,4-nitroanisole,[N+](=O)([O-])c1ccc(cc1)OC,water,0.003890451,21106148,-2.41,
1287,4-nitroanisole,COc1ccc(cc1)[N+](=O)[O-],water,0.003890451,21106148,-2.41,
1287,4-Nitrobenzohydrazide,c1(ccc(cc1)[N+](=O)[O-])C(=O)NN,water,0.006902398,11422776,-2.161,
962,4-nitrobenzoic acid,O=[N+]([O-])c1ccc(C(=O)O)cc1,water,0.001,5882,-2.921995573,
1287,4-nitrobenzoic acid,O=[N+]([O-])c1ccc(C(=O)O)cc1,water,0.001584893,5882,-2.8,
1287,4-nitrobenzoic acid,O=[N+]([O-])c1ccc(C(=O)O)cc1,water,0.002540973,5882,-2.595,
1287,4-nitrooxybutan-2-yl nitrate,O(C(CCO[N+](=O)[O-])C)[N+](=O)[O-],water,0.021928049,122356,-1.659,
1287,4-nitrooxybutyl nitrate,[N+](=O)(OCCCCO[N+](=O)[O-])[O-],water,0.020989399,69444,-1.678,
1287,4-nitrooxypentan-2-yl nitrate,C(CC(O[N+](=O)[O-])C)(O[N+](=O)[O-])C,water,0.00608135,453752,-2.216,
1287,4-nitrophenol,[N+](=O)([O-])c1ccc(cc1)O,water,0.181970086,955,-0.74,
1006,4-nitropyridine-N-oxide,c1c[n+](ccc1[N+](=O)[O-])[O-],water,0.205,13662,-0.688246139,
1287,4-nitrotoluene,[N+](=O)([O-])c1ccc(cc1)C,water,0.003235937,13863774,-2.49,
1287,4-oxa-1-thiaspiro[4.5]decan-3-ylmethyl carbamate,C21(OC(CS1)COC(=O)N)CCCCC2,water,0.001499685,2542144,-2.824,
1287,"4-oxo-2,3-dihydro-1H-naphthalene-2-carboxylic acid",c21c(cccc1)C(=O)CC(C2)C(=O)O,water,0.007925013,193598,-2.101,
1287,4-oxo-4-[(4-sulfamoylphenyl)amino]butanoic acid,S(=O)(=O)(c1ccc(cc1)NC(=O)CCC(=O)O)N,water,0.009246982,54610,-2.034,
1287,"4-oxo-5,6-dihydrothieno[5,4-b]thiopyran-2-sulfonamide",c21c(sc(c1)S(=O)(=O)N)SCCC2=O,water,0.000280543,10438327,-3.552,
1287,"4-oxopyran-2,6-dicarboxylic acid",C1(=CC(=O)C=C(O1)C(=O)O)C(=O)O,water,0.079615935,7153,-1.099,
1287,4-pentene-1-ol,OCCCC=C,water,0.707945784,12626,-0.15,
1287,4-phenylazoresorcinol,c1(c(cc(cc1)O)O)N=Nc2ccccc2,water,0.00083946,10466804,-3.076,
914,4-phenylbutyric acid,O=C(O)CCCc1ccccc1,water,0.010,4611,-2,
1287,4-phenylsemicarbazide,N(N)C(=O)Nc1ccccc1,water,0.004677351,10380,-2.33,
1287,4-propylquinazolin-8-ol,c21c(c(ccc1)O)ncnc2CCC,water,0.001199499,10465357,-2.921,
1287,4-pteridinethiol,Sc2ncnc1nccnc12,water,0.001698244,10465571,-2.77,
1287,4-pteridinethiol,Sc2ncnc1nccnc12,water,0.004365158,10465571,-2.36,
1287,4-sulfamoylbenzamide,S(=O)(=O)(c1ccc(cc1)C(=O)N)N,water,0.004988845,72755,-2.302,
1287,4-toluenesulfonamide,S(=O)(=O)(N)c1ccc(cc1)C,water,0.018197009,6033,-1.74,
1287,"4,4-diethyl-1-methyl-2-phenylpyrazolidine-3,5-dione",C1(C(=O)N(N(C1=O)C)c2ccccc2)(CC)CC,water,0.002027683,2296429,-2.693,
1287,"4,4-Diethyl-5-oxo-1-phenyl-4,5-dihydro-1H-pyrazol-3-yl acetate",CCC1(C(=NN(C1=O)c2ccccc2)OC(=O)C)CC,water,0.000291743,28295166,-3.535000001,
1287,"4,4-dimethyl-1-pentanol",OCCCC(C)(C)C,water,0.028183829,17369,-1.55,
1287,"4,4-Dimethylbicyclo[3.2.1]octane-2,3-dione",CC1(C2CCC(C2)C(=O)C1=O)C,water,0.029991625,28295074,-1.523,
1287,"4,4,7-trioxo-5,6-dihydrothieno[4,5-b]thiopyran-2-sulfonamide",c21c(sc(c1)S(=O)(=O)N)C(=O)CCS2(=O)=O,water,0.000213304,10439280,-3.671000001,
1287,"4,4'-Dibromobiphenyl",c1(ccc(cc1)Br)-c2ccc(cc2)Br,water,1.8197E-08,6843,-7.740000205,
1287,"4,4'-dichlorobiphenyl",Clc2ccc(c1ccc(Cl)cc1)cc2,water,2.75423E-07,15474,-6.559999796,
1287,"4,4´-bipyridine",n1ccc(cc1)-c2ccncc2,water,0.028840315,21105699,-1.54,
1287,"4,4a,8,8a-tetrahydro-[1,3]dioxino[4,5-e][1,3]dioxin-8-ylmethanol",C21C(OCOC1CO)COCO2,water,0.238231947,190468,-0.623,
1287,"4,5-Dichloro-2-methoxyphenol",Clc1c(cc(c(c1)OC)O)Cl,water,0.002951209,16244,-2.53,
1287,"4,5-dichloroveratrole",COc1c(cc(c(c1)Cl)Cl)OC,water,0.000346737,16741,-3.460000001,
1287,"4,5-dimethyl-2-phenylpyrazol-3-amine",n1(c(c(c(n1)C)C)N)-c2ccccc2,water,0.021379621,3924312,-1.67,
1287,"4,6-dihydroxy-2-methylpyrimidine-5-carboxamide",C1(=O)C(C(=O)N=C(N1)C)C(=O)N,water,0.003872576,3636435,-2.412,
1287,"4,6-dimethyl-8,9,10,11-tetrahydro-[1]benzoxolo[2,3-h]chromen-2-one",c21c4c(cc(c1oc3c2CCCC3)C)C(=CC(=O)O4)C,water,8.20352E-06,115829,-5.086000023,
1287,"4,6,7-trichloro-2,1,3-benzothiadiazole",Clc2c1nsnc1c(cc2Cl)Cl,water,1.04713E-05,15301,-4.98000002,
1169,"4,7-dichloroquinoline",Clc1cc2nccc(Cl)c2cc1,water,0.001574935,6604,-2.802737357,
1287,"4,7-Dimethyl-1,10-phenanthroline",n3c2c1nccc(c1ccc2c(cc3)C)C,water,0.000107152,65628,-3.969999998,
1287,"4,7,7-trioxo-5,6-dihydrothieno[5,4-b]thiopyran-2-sulfonamide",c21c(cc(s1)S(=O)(=O)N)C(=O)CCS2(=O)=O,water,0.000959401,10439281,-3.018,
1287,4(3H)-Pyrimidonep,N1=CN=CCC1=O,water,3.89045145,93916,0.59,