Experiment Number (900 series refer to external references),solute,solute SMILES,solvent,concentration (M),csid,solubility,
1287,"2,2',3,4,4',5',6-heptachlorobiphenyl",Clc1c(c(Cl)c(Cl)c(Cl)c1)c2cc(Cl)c(Cl)cc2Cl,water,1.2023E-08,36981,-7.919987153,
1287,"2,2',3,4,4',6'-Hexachlorodiphenyl ether",O(c1c(c(c(cc1)Cl)Cl)Cl)c2c(cc(cc2Cl)Cl)Cl,water,7.943E-09,160524,-8.100015437,
1287,"2,2',3,4,5-pentachlorobiphenyl",Clc1c(cc(Cl)c(Cl)c1Cl)c2ccccc2Cl,water,6.166E-08,37779,-7.20999648,
1287,"2,2',3,4,5,5'-hexachlorobiphenyl",Clc1c(cc(Cl)c(Cl)c1Cl)c2cc(Cl)ccc2Cl,water,2.0893E-08,36771,-7.679999196,
1287,"2,2',3,4,5'-pentachlorobiphenyl",Clc2ccc(c1cc(Cl)ccc1Cl)c(Cl)c2Cl,water,1.2303E-08,34849,-7.909988976,
1287,"2,2',3,4,6-pentachlorobiphenyl",Clc1c(c(Cl)c(Cl)c(Cl)c1)c2ccccc2Cl,water,3.7154E-08,37744,-7.429994423,
1287,"2,2',3,4',5,5',6-heptachlorobiphenyl",c1(c(c(cc(c1Cl)Cl)Cl)Cl)-c2c(cc(c(c2)Cl)Cl)Cl,water,1.148E-09,36980,-8.940058112,
1287,"2,2',3,4',5,5',6-Heptachlorodiphenyl ether",O(c1c(c(cc(c1Cl)Cl)Cl)Cl)c2c(cc(c(c2)Cl)Cl)Cl,water,8.91E-10,77837,-9.050122296,
1287,"2,2',3,5,5',6-hexachlorobiphenyl",Clc2c(c1cc(Cl)ccc1Cl)c(Cl)c(Cl)cc2Cl,water,3.8019E-08,36976,-7.41999931,
1287,"2,2',3,5'-tetrachlorobiphenyl",Clc2c(c1cc(Cl)ccc1Cl)cccc2Cl,water,3.38844E-07,35579,-6.4700002,
1287,"2,2',4,4'-tetrachlorobenzyl 3-toluene",c1(c(c(c(cc1)Cl)C)Cl)Cc2c(cc(cc2)Cl)Cl,water,3.9811E-08,77875,-7.399996913,
1287,"2,2',4,4'-tetrachlorobenzyl 5-toluene",c1(c(cc(c(c1)C)Cl)Cl)Cc2c(cc(cc2)Cl)Cl,water,3.2359E-08,77876,-7.490004908,
1287,"2,2',4,4'-tetrachlorodiphenyl ether",O(c1c(cc(cc1)Cl)Cl)c2c(cc(cc2)Cl)Cl,water,1.51356E-07,31465,-6.820000358,
1287,"2,2',4,4',5,5'-hexachlorobiphenyl",Clc2cc(c1cc(Cl)c(Cl)cc1Cl)c(Cl)cc2Cl,water,2.754E-09,33983,-8.560036064,
1287,"2,2',4,4',5,5'-Hexachlorodiphenyl ether",O(c1c(cc(c(c1)Cl)Cl)Cl)c2c(cc(c(c2)Cl)Cl)Cl,water,4.365E-09,46590,-8.360015752,
1287,"2,2',4,4',5,6'-Hexachlorodiphenyl ether",O(c1c(cc(c(c1)Cl)Cl)Cl)c2c(cc(cc2Cl)Cl)Cl,water,9.12E-09,37919,-8.040005162,
1159,"2,2',4,4',6,6'-hexachlorobiphenyl",Clc2cc(Cl)cc(Cl)c2c1c(Cl)cc(Cl)cc1Cl,water,7.87E-09,33666,-8.104025268,
1287,"2,2',4,4',6,6'-hexachlorobiphenyl",Clc2cc(Cl)cc(Cl)c2c1c(Cl)cc(Cl)cc1Cl,water,1.95E-09,33666,-8.709965389,
1287,"2,2',4,5-tetrachlorobiphenyl",c1(c(cc(c(c1)Cl)Cl)Cl)-c2c(cccc2)Cl,water,2.69153E-07,46262,-6.570000775,
1287,"2,2',4,5,5'-pentachlorobiphenyl",Clc2cc(c1cc(Cl)ccc1Cl)c(Cl)cc2Cl,water,1.2882E-08,34668,-7.890016705,
1287,"2,2',4,5,5'-pentachlorobiphenyl",Clc2cc(c1cc(Cl)ccc1Cl)c(Cl)cc2Cl,water,4.6774E-08,34668,-7.329995489,
1287,"2,2',4,5'-tetrachlorobenzyl-5 toluene",c1(c(cc(c(c1)C)Cl)Cl)Cc2c(ccc(c2)Cl)Cl,water,8.71E-09,77877,-8.059981845,
1287,"2,2',4,6,6'-pentachlorobiphenyl",Clc2cc(Cl)cc(Cl)c2c1c(Cl)cccc1Cl,water,4.7863E-08,82765,-7.320000084,
1287,"2,2',4,6'-tetrachlorobenzyl 3-toluene",c1(c(c(c(cc1)Cl)C)Cl)Cc2c(cccc2Cl)Cl,water,1.0233E-08,77878,-7.989997026,
1287,"2,2',4,6'-tetrachlorobenzyl 5-toluene",c1(c(cc(c(c1)C)Cl)Cl)Cc2c(cccc2Cl)Cl,water,4.365E-09,77879,-8.360015752,
1287,"2,2',5,5'-tetrabromobiphenyl",c1(c(ccc(c1)Br)Br)-c2c(ccc(c2)Br)Br,water,8.71E-09,514050,-8.059981845,
1287,"2,2',5,5'-tetrachlorobenzyl 4-toluene",c1(c(cc(c(c1)Cl)C)Cl)Cc2c(ccc(c2)Cl)Cl,water,9.333E-09,156659,-8.029978734,
1287,"2,2',5,5'-tetrachlorobiphenyl",Clc2ccc(Cl)cc2c1c(Cl)ccc(Cl)c1,water,0.0000001,34189,-7,
1287,"2,2',5,6'-tetrachlorobiphenyl",Clc2cccc(Cl)c2c1c(Cl)ccc(Cl)c1,water,1.58489E-07,35581,-6.800000875,
1287,"2,2',6,6'-tetrachlorobiphenyl",Clc2cccc(Cl)c2c1c(Cl)cccc1Cl,water,4.0738E-08,25677,-7.390000296,
1287,"2,2',6,6'-tetrachlorobiphenyl",Clc2cccc(Cl)c2c1c(Cl)cccc1Cl,water,9.333E-09,25677,-8.029978734,
1287,"2,2´-bipyridine",n1c(cccc1)-c2ncccc2,water,0.03801894,13867714,-1.42,
1287,"2,3-benzofluorene",c1cccc4c1c2c(cc3c(c2)cccc3)C4,water,9.12E-09,8846,-8.040005162,
1287,"2,3-dichloro-2-methylbutane",ClC(C(Cl)C)(C)C,water,0.002041738,21108546,-2.69,
1287,"2,3-dichloro-2-methylbutane",CC(C(C)Cl)(C)Cl,water,0.002041738,21108546,-2.69,
1287,"2,3-Dichloroanisole",COc1c(c(ccc1)Cl)Cl,water,0.000489779,15310,-3.31,
1287,"2,3-dichlorobutane",CC(C(C)Cl)Cl,water,0.001995262,22655,-2.7,
1287,"2,3-dichloronitrobenzene",[N+](=O)([O-])c1c(c(ccc1)Cl)Cl,water,0.000331131,21106574,-3.480000001,
1287,"2,3-dichlorophenol",Clc1c(cccc1O)Cl,water,0.050118723,10857,-1.3,
1287,"2,3-dihydroxypropyl 2-(6-methoxynaphthalen-2-yl)propanoate",c21c(cc(cc1)OC)ccc(c2)C(C(=O)OCC(CO)O)C,water,0.00242661,34934,-2.615,
1287,"2,3-DIMETHOXYBENZOIC ACID",c1(c(cccc1OC)C(=O)O)OC,water,0.00724436,14470,-2.14,
1287,"2,3-dimethyl-2-butanol",OC(C(C)C)(C)C,water,0.389045145,11180,-0.41,
1287,"2,3-dimethyl-2-butanol",CC(C(C)C)(O)C,water,0.389045145,11180,-0.41,
1287,"2,3-dimethyl-2-pentanol",OC(C(CC)C)(C)C,water,0.128824955,19770,-0.89,
1153,"2,3-dimethyl-2,3-dinitrobutane",CC(C)(C(C)(C)[N+](=O)[O-])[N+](=O)[O-],water,6.8151E-05,69982,-4.166528073,
1287,"2,3-dimethyl-3-pentanol",OC(C(C)C)(CC)C,water,0.141253754,11194,-0.85,
1287,"2,3-dimethyl-3-pentanol",CC(C(CC)(O)C)C,water,0.141253754,11194,-0.85,
1287,"2,3-Dimethylbuta-1,3-diene",CC(=C)C(=C)C,water,0.003981072,10124,-2.4,
1287,"2,3-Dimethylbutane",C(C(C)C)(C)C,water,0.000223872,6340,-3.65,
1287,"2,3-dimethylbutanol",OCC(C(C)C)C,water,0.407380278,27560,-0.39,
1287,"2,3-dimethylbutanol",C(C(C(C)C)C)O,water,0.407380278,27560,-0.39,
1287,"2,3-Dimethylnaphthalene",Cc1c(cc2c(c1)cccc2)C,water,1.90546E-05,10908,-4.720000004,
1287,"2,3-Dimethylpentane",C(C(C)C)(CC)C,water,5.24807E-05,10786,-4.28,
1287,"2,3-dimethylpyridine",n1c(c(ccc1)C)C,water,2.398832919,10940,0.38,
1287,"2,3-dimethylquinolin-8-ol",c21c(cc(c(n1)C)C)cccc2O,water,0.000479733,10467078,-3.319,
1287,"2,3-xylenol",Oc1c(c(ccc1)C)C,water,0.037153523,13839151,-1.43,
1287,"2,3,3-trimethyl-2-butanol",OC(C(C)(C)C)(C)C,water,0.190546072,11186,-0.72,
1287,"2,3,3-trimethyl-2-butanol",CC(C(C)(C)C)(O)C,water,0.190546072,11186,-0.72,
1287,"2,3,3',4,4'-pentachlorodiphenyl ether",O(c1c(c(c(cc1)Cl)Cl)Cl)c2cc(c(cc2)Cl)Cl,water,2.138E-08,83432,-7.669992299,
1287,"2,3,3',4,4',5-hexachlorobiphenyl",Clc1c(cc(Cl)c(Cl)c1Cl)c2ccc(Cl)c(Cl)c2,water,1.5136E-08,34854,-7.819988881,
1287,"2,3,3',4,4',5-Hexachlorodiphenyl ether",O(c1c(c(c(c(c1)Cl)Cl)Cl)Cl)c2cc(c(cc2)Cl)Cl,water,1.66E-09,77836,-8.779891912,
1287,"2,3,3',4,4',5,6-Heptachlorodiphenyl ether",O(c1c(c(c(c(c1Cl)Cl)Cl)Cl)Cl)c2cc(c(cc2)Cl)Cl,water,3.47E-10,84382,-9.459670525,
1287,"2,3,3',4,4',6-hexachlorobiphenyl",Clc1c(c(Cl)c(Cl)c(Cl)c1)c2ccc(Cl)c(Cl)c2,water,2.1878E-08,56757,-7.659992382,
1287,"2,3,4-trichloro-6-methoxyphenol",c1(c(c(cc(c1Cl)Cl)OC)O)Cl,water,0.000219786,16619,-3.658000001,
1287,"2,3,4-trichloroanisole",COc1c(c(c(cc1)Cl)Cl)Cl,water,5.12861E-05,37440,-4.290000003,
1287,"2,3,4-trichlorophenol",Clc1c(c(ccc1Cl)O)Cl,water,0.002137962,25672,-2.67,
1287,"2,3,4-trimethylpentane",C(C(C)C)(C(C)C)C,water,1.58489E-05,10795,-4.799999998,
1287,"2,3,4,4'-tetrachlorobenzyl 5-toluene",c1(c(c(c(c(c1)C)Cl)Cl)Cl)Cc2ccc(cc2)Cl,water,6.607E-09,28295223,-8.179995693,
1287,"2,3,4,4',5,6-Hexachlorodiphenyl ether",O(c1c(c(c(c(c1Cl)Cl)Cl)Cl)Cl)c2ccc(cc2)Cl,water,1.148E-09,10298166,-8.940058112,
1287,"2,3,4,5-tetrachloro-6-methoxyphenol",Clc1c(c(c(c(c1Cl)OC)O)Cl)Cl,water,9.54993E-05,16410,-4.019999998,
1287,"2,3,4,5-tetrachloro-6-methoxyphenol",c1(c(c(c(c(c1O)Cl)Cl)Cl)Cl)OC,water,9.54993E-05,16410,-4.019999998,
1287,"2,3,4,5-tetrachlorobiphenyl",Clc1c(cc(Cl)c(Cl)c1Cl)c2ccccc2,water,6.9183E-08,33457,-7.160000609,
1287,"2,3,4,5-TETRACHLOROPHENOL",Clc1c(c(cc(c1Cl)O)Cl)Cl,water,0.000707946,19766,-3.15,
1287,"2,3,4,5-tetraiodo-1H-pyrrole",Ic1[nH]c(c(c1I)I)I,water,0.000346737,59969,-3.460000001,
1287,"2,3,4,5,6-pentachlorobiphenyl",Clc1c(c(Cl)c(Cl)c(Cl)c1Cl)c2ccccc2,water,1.2023E-08,16415,-7.919987153,
1287,"2,3,4,5,6-Pentachlorophenol",Clc1c(c(c(c(c1Cl)Cl)O)Cl)Cl,water,5.24807E-05,967,-4.28,
1287,"2,3,4,5,6-Pentachlorophenol",c1(c(c(c(c(c1Cl)Cl)O)Cl)Cl)Cl,water,1.99526E-05,967,-4.700000003,
1287,"2,3,4,6-Tetrachlorophenol",Clc1c(c(c(cc1Cl)Cl)O)Cl,water,0.000794328,5806,-3.1,
1287,"2,3,4,7,8-pentachlorodibenzofuran",o1c3c(c2c1cc(c(c2)Cl)Cl)cc(c(c3Cl)Cl)Cl,water,6.92E-10,38417,-9.159893906,
1287,"2,3,4',-trichlorobiphenyl",Clc2c(c1ccc(Cl)cc1)cccc2Cl,water,5.49541E-07,34869,-6.2599999,
1287,"2,3,5-TRICHLOROPHENOL",Clc1c(cc(cc1O)Cl)Cl,water,0.002137962,13030,-2.67,
1287,"2,3,5,6-TETRACHLOROPHENOL",Clc1c(cc(c(c1O)Cl)Cl)Cl,water,0.00042658,13047,-3.37,
1287,"2,3,5,6-tetrafluoro-4-methylbenzyl 3-[(1Z)-2-chloro-3,3,3-trifluoro-1-propen-1-yl]-2,2-dimethylcyclopropanecarboxylate",FC(F)(F)C(=CC1C(C1C(=O)OCc2c(c(c(c(c2F)F)C)F)F)(C)C)Cl,water,4.7863E-08,4445167,-7.320000084,
1287,"2,3,6-trichlorobiphenyl",Clc2c(c1ccccc1)c(Cl)ccc2Cl,water,5.12861E-07,37904,-6.290000325,
1287,"2,3,6-TRICHLOROPHENOL",Clc1c(ccc(c1O)Cl)Cl,water,0.002290868,13029,-2.64,
1287,"2,3,7,8-tetrachlorodibenzofuran",o1c3c(c2c1cc(c(c2)Cl)Cl)cc(c(c3)Cl)Cl,water,1.38E-09,36507,-8.860120914,
1287,"2,3,7,8-tetrachlorooxanthrene",Clc2cc1Oc3c(Oc1cc2Cl)cc(Cl)c(Cl)c3,water,6E-11,14865,-10.22184875,
1287,"2,3',4,4'-tetrachlorobiphenyl",Clc2ccc(c1ccc(Cl)cc1Cl)cc2Cl,water,1.5849E-08,33279,-7.799998135,
1287,"2,3',4,4',5-pentachlorobiphenyl",Clc2cc(c1ccc(Cl)c(Cl)c1)c(Cl)cc2Cl,water,4.0738E-08,32952,-7.390000296,
1287,"2,3',4,4',5,5'-Hexachlorodiphenyl ether",O(c1c(cc(c(c1)Cl)Cl)Cl)c2cc(c(c(c2)Cl)Cl)Cl,water,1.905E-09,77914,-8.72010502,
1287,"2,3',4',5-tetrachlorobiphenyl",Clc2ccc(c1cc(Cl)ccc1Cl)cc2Cl,water,5.6234E-08,33280,-7.250001023,
1287,"2,3',5-trichlorobiphenyl",Clc2ccc(Cl)cc2c1cc(Cl)ccc1,water,9.77237E-07,34867,-6.010000098,
1287,"2,4-dichloro-1-(2,4-dichlorophenyl)benzene",Clc1c(ccc(c1)Cl)-c2c(cc(cc2)Cl)Cl,water,3.0903E-07,16182,-6.509999358,
1287,"2,4-dichloro-1-(2,5-dichlorophenyl)benzene",Clc1c(ccc(c1)Cl)-c2c(ccc(c2)Cl)Cl,water,2.69153E-07,35580,-6.570000775,
1287,"2,4-Dichloro-N-hydroxy-N-(2-methylphenyl)benzamide",Cc1ccccc1N(C(=O)c2ccc(cc2Cl)Cl)O,water,6.74528E-05,28295187,-4.170999999,
1287,"2,4-Dichloro-N-hydroxy-N-(3-methylphenyl)benzamide",Cc1cccc(c1)N(C(=O)c2ccc(cc2Cl)Cl)O,water,3.37287E-05,28295200,-4.471999998,
1287,"2,4-dichloro-N-hydroxy-N-phenylbenzamide",C(=O)(c1c(cc(cc1)Cl)Cl)N(c2ccccc2)O,water,0.000212814,10468852,-3.671999999,
1287,"2,4-dichlorobiphenyl",Clc2cc(Cl)ccc2c1ccccc1,water,5.62341E-06,33455,-5.250000019,
1287,"2,4-Dichlorophenol",Clc1c(ccc(c1)Cl)O,water,0.028183829,8140,-1.55,
1287,"2,4-dimethyl-1-pentanol",OCC(CC(C)C)C,water,0.025118864,21326,-1.6,
1287,"2,4-dimethyl-2-pentanol",OC(CC(C)C)(C)C,water,0.120226443,11734,-0.92,
1287,"2,4-dimethyl-2-pentanol",CC(CC(C)C)(O)C,water,0.120226443,11734,-0.92,
1287,"2,4-dimethyl-3-pentanol",OC(C(C)C)C(C)C,water,0.060255959,11259,-1.22,
1287,"2,4-dimethyl-3-pentanol",CC(C(C(C)C)O)C,water,0.060255959,11259,-1.22,
1287,"2,4-dimethyl-3H-1,5-benzodiazepine",c21c(cccc1)N=C(CC(=N2)C)C,water,0.042953643,253877,-1.367,
1287,"2,4-Dimethylpentane",C(CC(C)C)(C)C,water,5.49541E-05,7619,-4.260000003,
1287,"2,4-Dimethylpentane",CC(CC(C)C)C,water,5.49541E-05,7619,-4.260000003,
1287,"2,4-dimethylphenol",Oc1c(cc(cc1)C)C,water,0.064565423,13839123,-1.19,
1287,"2,4-dimethylpyridine",n1c(cc(cc1)C)C,water,2.398832919,21132380,0.38,
1287,"2,4-Dimethylquinoline",n1c2c(c(cc1C)C)cccc2,water,0.011481536,13879,-1.94,
1287,"2,4-dinitrotoluene",[N+](=O)([O-])c1c(ccc(c1)[N+](=O)[O-])C,water,0.001513561,8150,-2.82,
1287,"2,4-octadione",O=C(CCCC)CC(=O)C,water,0.027542287,75951,-1.56,
1287,"2,4-pentanedione",O=C(CC(=O)C)C,water,1.659586907,29001,0.22,
1287,"2,4,4'-trichlorobiphenyl",Clc2cc(Cl)ccc2c1ccc(Cl)cc1,water,6.16595E-07,21924,-6.210000001,
1287,"2,4,4'-trichlorodiphenyl ether",O(c1c(cc(cc1)Cl)Cl)c2ccc(cc2)Cl,water,6.0256E-07,38547,-6.219999702,
1287,"2,4,4',6-tetrachlorobiphenyl",c1(c(cc(cc1Cl)Cl)Cl)-c2ccc(cc2)Cl,water,1.14815E-07,56792,-6.94000137,
1287,"2,4,5-trichlorobiphenyl",Clc2cc(c1ccccc1)c(Cl)cc2Cl,water,5.37032E-07,25605,-6.269999835,
1287,"2,4,5-trichlorodiphenyl ether",O(c1c(cc(c(c1)Cl)Cl)Cl)c2ccccc2,water,2.63027E-07,36838,-6.579999668,
1287,"2,4,5-Trichlorophenol",Clc1c(cc(c(c1)Cl)O)Cl,water,0.00616595,7001,-2.21,
1287,"2,4,5-trihydroxy-2-(hydroxymethyl)pentanoic acid",C(C(=O)O)(CC(CO)O)(CO)O,water,4.055085354,14466,0.608,
1287,"2,4,5,6-tetrachloroanisole",COc1c(cc(c(c1Cl)Cl)Cl)Cl,water,7.4131E-06,13058,-5.130000024,
1287,"2,4,6-tribromobiphenyl",c1(c(cc(cc1Br)Br)Br)-c2ccccc2,water,5.0119E-08,83381,-7.299997603,
1287,"2,4,6-trichloroanisole",COc1c(cc(cc1Cl)Cl)Cl,water,6.30957E-05,6620,-4.200000003,
1159,"2,4,6-trichlorobiphenyl",Clc2cc(Cl)cc(Cl)c2c1ccccc1,water,0.000000844,34188,-6.073657553,
1287,"2,4,6-trichlorobiphenyl",Clc2cc(Cl)cc(Cl)c2c1ccccc1,water,7.24436E-07,34188,-6.139999976,
1287,"2,4,6-Trichlorophenol",Clc1c(c(cc(c1)Cl)Cl)O,water,0.004570882,21106172,-2.34,
1287,"2,4,6-Triethoxy-1,3,5-triazine",c1(nc(nc(n1)OCC)OCC)OCC,water,0.032809529,12865,-1.484,
1287,"2,4,6-trimethylphenol",Oc1c(cc(cc1C)C)C,water,0.008912509,10248,-2.05,
1287,"2,4,6-Trinitrophenol",c1(c(cc(cc1[N+](=O)[O-])[N+](=O)[O-])[N+](=O)[O-])O,water,0.001479108,6688,-2.83,
1287,"2,4,6-trinitrotoluene",[N+](=O)([O-])c1c(c(cc(c1)[N+](=O)[O-])[N+](=O)[O-])C,water,0.00060256,8073,-3.22,
1287,"2,4'-dichlorobiphenyl",Clc2ccccc2c1ccc(Cl)cc1,water,5.24808E-06,33934,-5.279999967,
1287,"2,4'-dichlorodiphenyl ether",O(c1ccc(cc1)Cl)c2ccccc2Cl,water,3.01995E-06,21826,-5.51999996,
1287,"2,4',5-trichlorobiphenyl",Clc2ccc(Cl)cc2c1ccc(Cl)cc1,water,5.62341E-07,26011,-6.250000251,
1287,"2,5-Di-S-allyl-3,4-dideoxy-2,5-dithiohexaric acid",C=CCSC(CCC(C(=O)O)SCC=C)C(=O)O,water,0.006309573,28295106,-2.2,
1287,"2,5-dichlorobiphenyl",c1(c(ccc(c1)Cl)Cl)-c2ccccc2,water,5.7544E-06,33932,-5.240000028,
1287,"2,5-dihydroxy-2-methyl-5-propan-2-ylhexanedioic acid",C(CCC(C(=O)O)(O)C)(C(C)C)(C(=O)O)O,water,0.020417379,10468797,-1.69,
1287,"2,5-Dihydroxy-N-(2-hydroxyethyl)benzamide",c1(c(ccc(c1)O)O)C(=O)NCCO,water,0.285759054,101094,-0.544,
980,"2,5-dihydroxybenzoic acid",O=C(O)c1cc(O)ccc1O,water,0.778,3350,-0.109020403,
1287,"2,5-Dimethoxybenzaldehyde",C(=O)c1c(ccc(c1)OC)OC,water,0.004786301,60092,-2.32,
1287,"2,5-Dimethyl-1,4-piperazinedicarboximidamide",CC1CN(C(CN1C(=N)N)C)C(=N)N,water,1.056817509,28295033,0.024,
1287,"2,5-dimethylpyrano[5,6-f][1]benzoxol-7-one",c31c(cc2c(c1)cc(o2)C)OC(=O)C=C3C,water,5.92925E-06,144804,-5.227000018,
1287,"2,5-dimethylpyridine",n1c(ccc(c1)C)C,water,2.511886432,11042,0.4,
1287,"2,5-Piperazinedione",N1CC(=O)NCC1=O,water,0.147910839,7529,-0.83,
1323,"2,5-thiophenedicarboxylic acid",C1=C(SC(=C1)C(=O)O)C(=O)O,water,0.008082574,19099,-2.092450314,
1287,"2,5-xylenol",Oc1c(ccc(c1)C)C,water,0.028840315,13839128,-1.54,
1287,"2,5,9-trimethylpyrano[5,6-f][1]benzoxol-7-one",c31c(cc2c(c1C)oc(c2)C)C(=CC(=O)O3)C,water,5.30884E-06,5383,-5.275000036,
1287,"2,6-Dichloroanisole",COc1c(cccc1Cl)Cl,water,0.000794328,15311,-3.1,
1287,"2,6-Dichlorobenzonitrile",Clc1c(c(ccc1)Cl)C#N,water,5.7544E-05,2923,-4.239999998,
1287,"2,6-dichlorobiphenyl",Clc2cccc(Cl)c2c1ccccc1,water,6.16595E-06,33421,-5.210000001,
1287,"2,6-Dichlorodiphenyl ether",O(c1c(cccc1Cl)Cl)c2ccccc2,water,8.70964E-06,107094,-5.059999995,
1287,"2,6-dichlorophenol",Clc1c(c(ccc1)Cl)O,water,0.016218101,6633,-1.79,
1287,"2,6-diethylaniline",Nc1c(cccc1CC)CC,water,0.004466836,21106539,-2.35,
1287,"2,6-dimethyl-4-pyrimidinamine",Nc1nc(nc(c1)C)C,water,0.052480746,61354,-1.28,
1287,"2,6-Dimethylnaphthalene",Cc2cc1c(cc(cc1)C)cc2,water,1.28825E-05,10909,-4.889999984,
1287,"2,6-dimethylpyridine",n1c(cccc1C)C,water,2.818382931,13842613,0.45,
1287,"2,6-dinitrotoluene",[N+](=O)([O-])c1c(c(ccc1)[N+](=O)[O-])C,water,0.001,11320,-3,
1287,"2,6-xylenol",Oc1c(cccc1C)C,water,0.048977882,13839174,-1.31,
1287,"2,6,7-trimethylpteridine",c21c(nc(c(n1)C)C)cnc(n2)C,water,0.071779429,10465161,-1.144,
1287,"2,7-dichlorodibenzo-p-dioxin",c31c(cc(cc1)Cl)Oc2c(cc(cc2)Cl)O3,water,1.4791E-08,33642,-7.830002463,
1287,"2,7-Dimethylquinoline",n1c2c(ccc1C)ccc(c2)C,water,0.011481536,6871,-1.94,
1287,"2,8-dichlorodibenzo-p-dioxin",c31c(cc(cc1)Cl)Oc2c(ccc(c2)Cl)O3,water,6.6069E-08,35013,-7.180002266,
1287,"2,8-Dichlorodibenzofuran",o1c3c(c2c1ccc(c2)Cl)cc(cc3)Cl,water,6.166E-08,20217,-7.20999648,
1287,"2,8-dihydroxyadenine",C21=NC(=O)NC1=C(NC(=O)N2)N,water,0.000349945,83302,-3.456,
1287,"2',2,5-trichlorobiphenyl",Clc2ccc(Cl)cc2c1c(Cl)cccc1,water,9.54993E-07,34664,-6.019999812,
1287,"2',3,4-trichlorobiphenyl",Clc2ccc(c1ccccc1Cl)cc2Cl,water,5.12861E-07,34870,-6.290000325,
1287,205-82-3,c31c4cccc1-c2c5c(ccc2-c3ccc4)cccc5,water,0.00000001,8798,-8,
1287,205-99-2,c21c5c(cc-3c1c(ccc2)-c4c-3cccc4)cccc5,water,5.888E-09,8799,-8.230032199,
1287,22260-51-1,BrC,water,0.16218101,28857,-0.79,
1287,2385-85-5,ClC41C2(C5(C3(C(C1(C(C32Cl)(Cl)Cl)Cl)(C4(C5(Cl)Cl)Cl)Cl)Cl)Cl)Cl,water,1.58489E-07,16054,-6.800000875,
1287,292-64-8,C1CCCCCCC1,water,7.07946E-05,8909,-4.150000003,
1287,"3-(1,3-benzodioxol-5-yl)acrylic acid",c21c(ccc(c1)C=CC(=O)O)OCO2,water,0.00064121,558349,-3.193,
1287,3-(2-carboxyethyldisulfanyl)propanoic acid,C(=O)(CCSSCCC(=O)O)O,water,0.645654229,85828,-0.19,
1287,3-(2-dimethylamino-2-iminoethyl)sulfanyl-6-(1-hydroxyethyl)-4-methyl-7-oxo-1-azabicyclo[3.2.0]hept-2-ene-2-carboxylic acid,N21C(C(C1=O)C(O)C)C(C(=C2C(=O)O)SCC(=N)N(C)C)C,water,0.52480746,15679781,-0.28,
1287,3-(2-methylbutyl)-1-(4-carboxyphenyl)-3-methyltriazene,c1(ccc(cc1)N=NN(CC(CC)C)C)C(=O)O,water,0.016255488,23109737,-1.789,
1287,"3-(2-Methylphenoxy)propane-1,2-diol",c1(c(cccc1)C)OCC(CO)O,water,0.064565423,3919,-1.19,
1287,3-(2-Oxo-4-propyl-1(2H)-pyridinyl)propanoic acid,CCCc1ccn(c(=O)c1)CCC(=O)O,water,0.007834296,28295100,-2.106,
1287,3-(2-oxopyridin-1-yl)propanoic acid,N1(C(=O)C=CC=C1)CCC(=O)O,water,0.251767693,254065,-0.599,
1287,"3-(3-Chloro-4-methoxyphenyl)-1,1-dimethylurea",Clc1c(ccc(c1)NC(=O)N(C)C)OC,water,0.002754229,27749,-2.56,
1287,"3-(3-chloro-4-methylphenyl)-1,1-dimethylurea",Clc1c(ccc(c1)NC(=O)N(C)C)C,water,0.000346737,25472,-3.460000001,
1287,3-(3-hydroxyphenyl)sulfonylphenol,S(=O)(=O)(c1cc(ccc1)O)c2cc(ccc2)O,water,0.004677351,10763936,-2.33,
1287,"3-(3,4-dihydroxyphenyl)-2-methylaminopropanoic acid",c1(cc(c(cc1)O)O)CC(C(=O)O)NC,water,0.095060479,36713,-1.022,
1287,"3-(3,5-dichlorophenyl)-1,5-dimethyl-3-azabicyclo[3.1.0]hexane-2,4-dione",Clc1cc(cc(c1)N3C(=O)C2(C(C2)(C3=O)C)C)Cl,water,1.58489E-05,33326,-4.799999998,
1287,"3-(3,5-dichlorophenyl)-2,4-dioxo-N-propan-2-ylimidazolidine-1-carboxamide",Clc1cc(cc(c1)N2C(=O)N(CC2=O)C(=O)NC(C)C)Cl,water,4.16869E-05,34418,-4.380000004,
1287,"3-(3,5-dichlorophenyl)-5-ethenyl-5-methyl-1,3-oxazolidine-2,4-dione",Clc1cc(cc(c1)N2C(=O)OC(C2=O)(C)C=C)Cl,water,1.1749E-05,36278,-4.929999983,
1287,3-(4-Bromo-3-chlorophenyl)-1-methoxy-1-methylurea,Brc1c(cc(cc1)NC(=O)N(OC)C)Cl,water,0.000120226,24141,-3.920000002,
1287,3-(4-chlorophenyl)-1-methoxy-1-methylurea,Clc1ccc(cc1)NC(=O)N(OC)C,water,0.002691535,14868,-2.57,
1287,3-(4-Heptyl-2-oxo-1(2H)-pyridinyl)propanoic acid,CCCCCCCc1ccn(c(=O)c1)CCC(=O)O,water,4.00867E-05,28295196,-4.396999997,
1287,"3-(4,5-dihydro-1H-imidazol-2-yl)-2-naphthol",c1(c(cc2c(c1)cccc2)O)C3=NCCN3,water,0.000498884,10468838,-3.302,
1287,"3-(5,6-dihydrobenzo[b][1]benzazepin-11-yl)-N,N-dimethylpropan-1-amine",N2(c1c(cccc1)CCc3c2cccc3)CCCN(C)C,water,6.45654E-05,3568,-4.189999999,
1287,3-(carboxymethylsulfanyl)-3-phenylpropanoic acid,C(c1ccccc1)(CC(=O)O)SCC(=O)O,water,0.028510183,10469121,-1.545,
1287,"3-(decylamino)propane-1,2-diol",C(CNCCCCCCCCCC)(CO)O,water,0.000778037,13773782,-3.109,
1287,3-(Diethylamino)-2-butanyl 4-aminobenzoate,CCN(CC)C(C)C(C)OC(=O)c1ccc(cc1)N,water,0.000380189,28295161,-3.42,
1287,3-(hydroxy-phenylphosphoryl)propanoic acid,P(=O)(c1ccccc1)(CCC(=O)O)O,water,0.000835603,9462327,-3.078,
1287,"3-(hydroxymethyl)-5,5-di(phenyl)imidazolidine-2,4-dione",C1(C(=O)N(C(=O)N1)CO)(c2ccccc2)c3ccccc3,water,3.39625E-05,141746,-4.469000003,
1287,"3-(Nonylamino)-1,2-propanediol",CCCCCCCCCNCC(CO)O,water,0.002296149,28295128,-2.639,
1287,"3-(octylamino)propane-1,2-diol",C(CNCCCCCCCC)(CO)O,water,0.005970353,15298514,-2.224,
1287,3-(propan-2-ylideneamino)-1-(9H-xanthen-9-yl)urea,C2(c1c(cccc1)Oc3c2cccc3)NC(=O)NN=C(C)C,water,6.77642E-05,15562244,-4.168999998,