Experiment Number (900 series refer to external references),solute,solute SMILES,solvent,concentration (M),csid,solubility,
1312,pyrogallol,Oc1cccc(O)c1O,water,4.0203,13835557,0.604258462,
1287,pyrolan,n1(nc(cc1OC(=O)N(C)C)C)-c2ccccc2,water,0.008128305,6623,-2.09,
1287,pyrrole,[nH]1cccc1,water,0.676082975,7736,-0.17,
1287,pyrrolidine,N1CCCC1,water,14.12537545,29008,1.15,
1287,pyrrolidone,N1CCCC1=O,water,11.74897555,11530,1.07,
1287,quanidinoacetic acid,N(CC(=O)O)C(=N)N,water,0.030902954,743,-1.51,
1287,quinhydrone,OC1(C=CC(=O)C=C1)c2c(ccc(c2)O)O,water,0.018620871,23076087,-1.73,
1049,quinidine,O(c4cc1c(nccc1[C@H](O)[C@@H]2N3CC[C@@H](C2)[C@@H](/C=C)C3)cc4)C,water,0.001706082,389880,-2.768,
1287,quinidine,O(c4cc1c(nccc1[C@H](O)[C@@H]2N3CC[C@@H](C2)[C@@H](/C=C)C3)cc4)C,water,0.062661386,389880,-1.203,
1287,quinidine,O(c4cc1c(nccc1[C@H](O)[C@@H]2N3CC[C@@H](C2)[C@@H](/C=C)C3)cc4)C,water,0.001737801,389880,-2.76,
1049,quinine,COc1ccc2c(c1)c(ccn2)[C@H]([C@@H]3C[C@H]4CCN3C[C@@H]4C=C)O,water,0.00374973,389879,-2.426,
1287,quinolin-5-ol,n2c1c(c(ccc1)O)ccc2,water,0.002884032,10437303,-2.54,
1287,Quinolin-6-ol,n2c1c(cc(cc1)O)ccc2,water,0.00691831,10896,-2.16,
1287,quinolin-8-ol,n1c2c(ccc1)cccc2O,water,0.003801894,1847,-2.42,
1287,Quinoline,n1c2c(ccc1)cccc2,water,0.050118723,6780,-1.3,
1287,Quinoline-2-carboxylic acid,c21c(ccc(n1)C(=O)O)cccc2,water,0.081658237,6857,-1.088,
1287,Quinoline-5-carboxylic acid,c21c(cccc1nccc2)C(=O)O,water,0.002113489,202642,-2.675,
1287,Quinoline-6-carboxylic acid,c21c(ccc(c1)C(=O)O)nccc2,water,0.905732601,74515,-0.043,
1287,Quinoline-8-carboxylic acid,c21c(cccc1cccn2)C(=O)O,water,0.018113401,59951,-1.742,
1287,quintozene,[N+](=O)([O-])c1c(c(c(c(c1Cl)Cl)Cl)Cl)Cl,water,1.51356E-06,6464,-5.820000071,
1287,quintozene,Clc1c(c(c(c(c1Cl)Cl)Cl)Cl)[N+](=O)[O-],water,1.51356E-06,6464,-5.820000071,
1287,raffinose,O1C(C(C(C1CO)O)O)(OC2OC(C(C(C2O)O)O)COC3OC(C(C(C3O)O)O)CO)CO,water,0.389045145,190739,-0.41,
1287,ranitidine,Fc1c(c(F)c2c(c1N)C(=O)C(\C(=O)O)=C/N2C3CC3)N4CC(NC(C4)C)C,water,0.003155731,5067,-2.5009,
1287,Rapocodin,C532c1c4c(ccc1CC(C2CCC(C3O4)O)N(CC5)C)OC,water,0.1,2955,-1,
1287,redupresin,O=S(=O)(c1nc2ccc(OCC)cc2s1)N,water,3.99945E-05,3179,-4.398,
1287,redupresin,O=S(=O)(c1nc2ccc(OCC)cc2s1)N,water,0.000154882,3179,-3.81,
1287,redupresin,O=S(=O)(c1nc2ccc(OCC)cc2s1)N,water,4.00037E-05,3179,-4.397900001,
1287,reposamal,O=C1NC(=O)NC(=O)C1(CC)C=3C[C@H]2C[C@H](CC2)C=3,water,0.001682674,10468690,-2.774,
1287,reposamal,O=C1NC(=O)NC(=O)C1(CC)C=3C[C@H]2C[C@H](CC2)C=3,water,0.002290868,10468690,-2.64,
969,resveratrol,Oc2cc(\C=C\c1ccc(O)cc1)cc(O)c2,water,0.0000457,392875,-4.3400838,
1287,rhodanine,S1CC(=O)NC1=S,water,0.016982437,1013337,-1.77,
1287,riboflavin,N2(C1=NC(=O)NC(=O)C1=Nc3c2cc(c(c3)C)C)CC(O)C(O)C(O)CO,water,0.00020893,1043,-3.68,
1287,rinderon-DP,O=C(OCC(=O)[C@]3(OC(=O)CC)[C@]2(C[C@H](O)[C@]4(F)[C@@]/1(\C(=C/C(=O)\C=C\1)CC[C@H]4[C@@H]2C[C@@H]3C)C)C)CC,water,0.000169824,20490,-3.770000001,
1287,rolitetracycline,N(C4C3CC2C(c1c(cccc1)C(=O)C2=C(C3(C(=O)C=C4O)O)O)(O)C)(C)C,water,0.03801894,10468589,-1.42,
1287,rolitetracycline,N1(CCCC1)CNC(=O)C5=C(C(C4CC3C(c2c(c(ccc2)O)C(=O)C3=C(C4(C5=O)O)O)(O)C)N(C)C)O,water,0.03801894,10618558,-1.42,
1287,rotenone,O3C2COc1c(cc(c(c1)OC)OC)C2C(=O)c4c3c5c(cc4)OC(C5)C(=C)C,water,3.80189E-05,4923,-4.419999996,
1287,RTI 16,S=C2N(c1c(nccc1)N(c3ncccc32)CC)C,water,2.34423E-05,7971201,-4.630000003,
1287,S-[(4-chlorophenyl)methyl] diethylaminomethanethioate,C(=O)(N(CC)CC)SCc1ccc(cc1)Cl,water,0.000116413,31512,-3.934,
1287,S-[2-oxo-2-(phenylamino)ethyl] aminomethanethioate,c1(ccccc1)NC(=O)CSC(=O)N,water,0.047533523,195230,-1.323,
1287,S-Ethyl azepane-1-carbothioate,N1(C(=O)SCC)CCCCCC1,water,0.004275629,15790,-2.369,
1287,saccharin,S1(=O)(=O)NC(=O)c2c1cccc2,water,0.022908677,4959,-1.64,
1293,salbutamol,OCc1cc(ccc1O)C(O)CNC(C)(C)C,water,0.069,1999,-1.161150909,
1287,salicin,O1C(C(C(C(C1CO)O)O)O)Oc2c(cccc2)CO,water,0.141253754,388601,-0.85,
1313,salicin,c1ccc(c(c1)CO)O[C@H]2[C@@H]([C@H]([C@@H]([C@H](O2)CO)O)O)O,water,0.1397,388601,-0.854803594,
1287,salicyl alcohol,OCc1c(cccc1)O,water,0.512861384,4962,-0.29,
1287,salicylaldehyde,Oc1c(cccc1)C=O,water,0.138038426,13863618,-0.86,
957,salicylamide,O=C(c1ccccc1O)N,water,0.015,4963,-1.823284258,
1049,salicylamide,O=C(c1ccccc1O)N,water,0.01686553,4963,-1.773,
1287,salicylamide,NC(=O)c1c(cccc1)O,water,0.017378008,4963,-1.76,
1287,salicylanilide,N(c1ccccc1)C(=O)c2c(cccc2)O,water,0.00025704,6610,-3.59,
1,salicylic acid,O=C(O)c1ccccc1O,water,0.015,331,-1.815308569,
907,salicylic acid,O=C(O)c1ccccc1O,water,0.014,331,-1.8569852,
979,salicylic acid,O=C(O)c1ccccc1O,water,0.014,331,-1.863279433,
1049,salicylic acid,c1ccc(c(c1)C(=O)O)O,water,0.013899526,331,-1.857,
1154,salicylic acid,c1ccc(c(c1)C(=O)O)O,water,0.011083104,331,-1.95533858,
1287,salicylic acid,Oc1c(cccc1)C(=O)O,water,0.015135612,331,-1.82,
1300,salicylic acid,c1ccc(c(c1)C(=O)O)O,water,0.0161,331,-1.793174124,
1287,santonin,O3C1C(CCC2(C1=C(C(=O)C=C2)C)C)C(C3=O)C,water,0.000812831,4972,-3.09,
1287,sarafloxacin,Fc1ccc(cc1)N\3c2cc(c(F)cc2C(=O)C(/C(=O)O)=C/3)N4CCNCC4,water,0.001634933,50727,-2.7865,
1287,sarafloxacin,Fc1ccc(cc1)N\3c2cc(c(F)cc2C(=O)C(/C(=O)O)=C/3)N4CCNCC4,water,0.000735529,50727,-3.1334,
1287,secobarbital,O=C1NC(=O)NC(=O)C1(C(C)CCC)C\C=C,water,0.004395416,5005,-2.357,
1287,secobarbital,O=C1NC(=O)NC(=O)C1(C(C)CCC)C\C=C,water,0.004365158,5005,-2.36,
1287,selegiline,C#CCN([C@@H](Cc1ccccc1)C)C,water,0.003072557,24930,-2.5125,
1287,serine,C([C@@H](C(=O)O)N)O,water,0.072996158,5736,-1.1367,
1287,siduron,N(C1C(CCCC1)C)C(=O)Nc2ccccc2,water,7.76247E-05,15300,-4.109999998,
1287,simetryn,S(C)c1nc(nc(n1)N(C)C)N(C)C,water,0.002089296,10468606,-2.68,
917,sinapic acid,O=C(O)\C=C\c1cc(OC)c(O)c(OC)c1,water,0.001,10290,-2.832141039,
1287,sorbic acid,OC(=O)C=CC=CC,water,0.016982437,558605,-1.77,
1287,sorbitol,OC(C(O)C(O)CO)C(O)CO,water,12.30268771,440,1.09,
1287,sparfloxacin,C[C@@H]1CN(C[C@@H](N1)C)c2c(c(c3c(c2F)n(cc(c3=O)C(=O)O)C4CC4)N)F,water,0.0004255,54517,-3.3711,
1287,"sparsomycin (3,8mg/ml)",S(=O)(CSC)CC(NC(=O)C=CC1=C(NC(=O)NC1=O)C)CO,water,0.010471285,4516413,-1.98,
1287,sparteine,N41C(C2CN3C(C(C1)C2)CCCC3)CCCC4,water,0.012882496,3829,-1.89,
1287,"Spiro[2,1-benzoxathiole-3,9'-xanthene]-2',7'-diol 1,1-dioxide",c1ccc2c(c1)C3(c4cc(ccc4Oc5c3cc(cc5)O)O)OS2(=O)=O,water,0.000317687,28295163,-3.498,
1287,"spiro[5,6-dihydroimidazo[2,3-b][3]benzazepine-11,4'-piperidine]-3-carboxamide",C42(c1n(c(cn1)C(=O)N)CCc3c2cccc3)CCNCC4,water,0.003715352,8017967,-2.43,
1049,spironolactone,O=C5O[C@@]4([C@@]3([C@H]([C@@H]2[C@H](SC(=O)C)C/C1=C/C(=O)CC[C@]1(C)[C@H]2CC3)CC4)C)CC5,water,6.38263E-05,5628,-4.195,
1287,spironolactone,[C@@]45([C@@]3([C@H]([C@H]2[C@@H]([C@@]1(C(=CC(=O)CC1)C[C@H]2SC(C)=O)C)CC3)CC4)C)OC(=O)CC5,water,5.24807E-05,5628,-4.28,
1287,stadacaine,N(CCOC(=O)c1ccc(cc1)OCCCC)(CC)CC,water,0.000144544,15997,-3.84,
1287,stadacaine,N(CC)(CC)c1c(ccc(c1)OCCCC)C(=O)OCC,water,0.000144544,21108573,-3.84,
1287,stanolone,OC4C3(C(C1C(C2(C(CC1)CC(=O)CC2)C)CC3)CC4)C,water,1.8197E-05,14,-4.73999999,
1287,stearic acid,OC(=O)CCCCCCCCCCCCCCCCC,water,2.0893E-06,5091,-5.680000027,
1049,strychnine,O=C7N2c1ccccc1[C@@]64[C@@H]2[C@@H]3[C@@H](OC/C=C5\[C@@H]3C[C@@H]6N(CC4)C5)C7,water,0.000184927,389877,-3.733,
1287,strychnine,O=C7N2c1ccccc1[C@@]64[C@@H]2[C@@H]3[C@@H](OC/C=C5\[C@@H]3C[C@@H]6N(CC4)C5)C7,water,0.00047863,389877,-3.32,
1287,strychnine,O=C7N2c1ccccc1[C@@]64[C@@H]2[C@@H]3[C@@H](OC/C=C5\[C@@H]3C[C@@H]6N(CC4)C5)C7,water,0.004102041,389877,-2.387,
1287,styrene,C=Cc1ccccc1,water,0.001513561,7220,-2.82,
1287,styrene,C=Cc1ccccc1,water,0.002454709,7220,-2.61,
1287,styrene oxide,O1C(C1)c2ccccc2,water,0.025118864,7005,-1.6,
1287,styrene oxide,C2C(c1ccccc1)O2,water,0.025118864,7005,-1.6,
1282,suberic acid,O=C(O)CCCCCCC(=O)O,water,0.011077042,10025,-1.955576185,
1287,succinic acid,OC(=O)CCC(=O)O,water,0.630957344,1078,-0.2,
1287,succinimide,N1C(=O)CCC1=O,water,1.995262315,10955,0.3,
1287,sucrose,[C@]2(O[C@H]1O[C@@H]([C@@H](O)[C@@H]([C@H]1O)O)CO)(O[C@H](CO)[C@H]([C@@H]2O)O)CO,water,6.165950019,5768,0.79,
1287,sufentanil,s1c(ccc1)CCN2CCC(CC2)(N(c3ccccc3)C(=O)CC)COC,water,0.000194984,38043,-3.71,
1049,sulfacetamide,O=S(=O)(c1ccc(N)cc1)NC(=O)C,water,0.02917427,5129,-1.535,
1287,sulfacetamide,O=S(=O)(c1ccc(N)cc1)NC(=O)C,water,0.058748935,5129,-1.231,
1287,sulfacetamide,O=S(=O)(c1ccc(N)cc1)NC(=O)C,water,0.030206472,5129,-1.5199,
1287,sulfacetamide,O=S(=O)(c1ccc(N)cc1)NC(=O)C,water,0.058884366,5129,-1.23,
1049,sulfadiazine,O=S(=O)(Nc1ncccn1)c2ccc(N)cc2,water,0.000248886,5026,-3.604,
1287,sulfadiazine,O=S(=O)(Nc1ncccn1)c2ccc(N)cc2,water,0.006854882,5026,-2.164,
1287,sulfadiazine,S(=O)(=O)(Nc1ncccn1)c2ccc(cc2)N,water,0.00030903,5026,-3.51,
1287,sulfadimethoxine,S(=O)(=O)(Nc1nc(nc(c1)OC)OC)c2ccc(cc2)N,water,0.001096478,5132,-2.96,
1287,sulfafurazole,O=S(=O)(Nc1onc(c1C)C)c2ccc(N)cc2,water,0.013091819,5151,-1.883,
1287,sulfafurazole,O=S(=O)(Nc1onc(c1C)C)c2ccc(N)cc2,water,0.001230269,5151,-2.91,
1049,sulfamerazine,O=S(=O)(Nc1nc(ccn1)C)c2ccc(N)cc2,water,0.00076913,5134,-3.114,
1287,sulfamerazine,O=S(=O)(Nc1nc(ccn1)C)c2ccc(N)cc2,water,0.002349633,5134,-2.629,
1287,sulfamerazine,O=S(=O)(Nc1nc(ccn1)C)c2ccc(N)cc2,water,0.001412538,5134,-2.85,
1287,sulfameter,S(=O)(=O)(Nc1ncc(cn1)OC)c2ccc(cc2)N,water,0.002630268,5135,-2.58,
1049,sulfamethazine,O=S(=O)(Nc1nc(cc(n1)C)C)c2ccc(N)cc2,water,0.001380384,5136,-2.86,
1287,sulfamethazine,O=S(=O)(Nc1nc(cc(n1)C)C)c2ccc(N)cc2,water,0.005321083,5136,-2.274,
1287,sulfamethazine,O=S(=O)(Nc1nc(cc(n1)C)C)c2ccc(N)cc2,water,0.005370318,5136,-2.27,
1287,sulfamethazine,O=S(=O)(Nc1nc(cc(n1)C)C)c2ccc(N)cc2,water,0.001851399,5136,-2.7325,
1287,sulfamethiazole,O=S(=O)(Nc1nnc(s1)C)c2ccc(N)cc2,water,3.54813E-05,5137,-4.449999999,
1287,sulfamethiazole,O=S(=O)(Nc1nnc(s1)C)c2ccc(N)cc2,water,0.003890451,5137,-2.41,
1287,sulfamethomidine,S(=O)(=O)(Nc1nc(nc(c1)OC)C)c2ccc(cc2)N,water,0.002884032,18460,-2.54,
1049,sulfamethoxazole,O=S(=O)(Nc1noc(c1)C)c2ccc(N)cc2,water,0.001409289,5138,-2.851,
1287,sulfamethoxazole,O=S(=O)(Nc1noc(c1)C)c2ccc(N)cc2,water,0.001188502,5138,-2.925,
1287,sulfamethoxazole,O=S(=O)(Nc1noc(c1)C)c2ccc(N)cc2,water,0.002398833,5138,-2.62,
1287,sulfamethoxypyridazine,S(=O)(=O)(Nc1nnc(cc1)OC)c2ccc(cc2)N,water,0.000524807,5139,-3.28,
1287,sulfamoxole,S(=O)(=O)(Nc1nc(c(o1)C)C)c2ccc(cc2)N,water,0.003630781,12361,-2.44,
1049,sulfanilamide,O=S(=O)(c1ccc(N)cc1)N,water,0.038459178,5142,-1.415,
1287,sulfanilamide,S(=O)(=O)(N)c1ccc(cc1)N,water,0.043651583,5142,-1.36,
1287,sulfaperine,S(=O)(=O)(Nc1ncc(cn1)C)c2ccc(cc2)N,water,0.001513561,62158,-2.82,
1287,sulfaphenazole,S(=O)(=O)(Nc1n(ncc1)-c2ccccc2)c3ccc(cc3)N,water,0.004786301,5144,-2.32,
1287,sulfapyrazine,S(=O)(=O)(Nc1nccnc1)c2ccc(cc2)N,water,0.000199526,8008,-3.700000001,
1287,sulfapyridine,O=S(=O)(Nc1ncccc1)c2ccc(N)cc2,water,0.001071519,5145,-2.97,
1287,sulfapyridine,O=S(=O)(Nc1ncccc1)c2ccc(N)cc2,water,0.001995262,5145,-2.7,
1302,sulfapyridine,O=S(=O)(Nc1ncccc1)c2ccc(N)cc2,water,0.001483,5145,-2.828858849,
1287,sulfasalazine,O=S(=O)(Nc1ncccc1)c3ccc(N/N=C2/C=C\C(=O)C(\C(=O)O)=C2)cc3,water,7.29962E-07,4514298,-6.136699748,
1287,sulfathiazole,O=S(c1ccc(cc1)\C=C/3\c2ccc(F)cc2\C(=C\3C)CC(=O)O)C,water,0.002045502,1265914,-2.6892,
1049,sulfathiozole,O=S(=O)(Nc1nccs1)c2ccc(N)cc2,water,0.006652732,5148,-2.177,
1287,sulfathiozole,O=S(=O)(Nc1nccs1)c2ccc(N)cc2,water,0.00134586,5148,-2.871,
1287,sulfathiozole,O=S(=O)(Nc1nccs1)c2ccc(N)cc2,water,0.00719449,5148,-2.143,
1287,sulfathiozole,O=S(=O)(Nc1nccs1)c2ccc(N)cc2,water,0.003715352,5148,-2.43,
1287,sulfisomidine,O=S(=O)(Nc1nc(nc(c1)C)C)c2ccc(N)cc2,water,0.004808393,5150,-2.318,
1287,sulfisomidine,O=S(=O)(Nc1nc(nc(c1)C)C)c2ccc(N)cc2,water,0.005754399,5150,-2.24,
1287,sulfuethylthiudiuzole,O=S(=O)(Nc1nnc(s1)CC)c2ccc(N)cc2,water,0.000756833,6913,-3.121,
1287,sulfuethylthiudiuzole,O=S(=O)(Nc1nnc(s1)CC)c2ccc(N)cc2,water,0.011481536,6913,-1.94,
1049,sulindac,O=S(c1ccc(cc1)\C=C3/c2ccc(F)cc2\C(=C3C)CC(=O)O)C,water,4.45656E-05,1265915,-4.351,
1287,sulindac,O=S(c1ccc(cc1)\C=C3/c2ccc(F)cc2\C(=C3C)CC(=O)O)C,water,0.000209991,1265915,-3.677800001,
1049,sulpiride,O=S(=O)(N)c1cc(c(OC)cc1)C(=O)NCC2N(CC)CCC2,water,0.001778279,5162,-2.75,
1287,t-amylbenzene,c1ccccc1C(CC)(C)C,water,7.07946E-05,15461,-4.150000003,
1287,t-butylbenzene,c1ccccc1C(C)(C)C,water,0.000218776,7088,-3.660000001,
1287,talbutal,N1C(=O)NC(=O)C(C1=O)(C(CC)C)CC=C,water,0.009549926,7976,-2.02,
1049,tenoxicam,O=C\2c1sccc1S(=O)(=O)N(C/2=C(/O)Nc3ncccc3)C,water,0.000115611,4471584,-3.937,
1160,tenoxicam,O=C\2c1sccc1S(=O)(=O)N(C/2=C(/O)Nc3ncccc3)C,water,0.000213638,4471584,-3.670322023,
1287,terbufos,S=P(OCC)(SCSC(C)(C)C)OCC,water,1.7378E-05,23912,-4.760000007,
1287,terbufos,S=P(OCC)(SCSC(C)(C)C)OCC,water,5.19996E-05,23912,-4.283999997,
1287,terbumeton,N(C(C)(C)C)c1nc(nc(n1)OC)NCC,water,0.00057544,33617,-3.24,
1287,terbutryne,S(C)c1nc(nc(n1)NCC)NC(C)(C)C,water,0.0001,12874,-4,
1049,terfenadine,OC(c1ccccc1)(c2ccccc2)C4CCN(CCCC(O)c3ccc(cc3)C(C)(C)C)CC4,water,1.34586E-05,5212,-4.871,
1287,tert-butyl 2-(6-methoxynaphthalen-2-yl)propanoate,C(OC(=O)C(c1cc2c(cc1)cc(cc2)OC)C)(C)(C)C,water,3.19154E-07,10441679,-6.495999708,
1287,testosterone,O=C4\C=C2/[C@]([C@H]1CC[C@@]3([C@@H](O)CC[C@H]3[C@@H]1CC2)C)(C)CC4,water,7.62079E-05,5791,-4.118,
1287,testosterone,O=C4\C=C2/[C@]([C@H]1CC[C@@]3([C@@H](O)CC[C@H]3[C@@H]1CC2)C)(C)CC4,water,9.54993E-05,5791,-4.019999998,
1287,testosterone,O=C4\C=C2/[C@]([C@H]1CC[C@@]3([C@@H](O)CC[C@H]3[C@@H]1CC2)C)(C)CC4,water,8.31764E-05,5791,-4.080000001,
1287,testosterone acetate,O(C4C3(C(C2C(C1(CCC(=O)C=C1CC2)C)CC3)CC4)C)C(=O)C,water,6.60693E-06,312395,-5.180000032,
1287,testosterone propionate,[C@@H]23[C@H]([C@H]1[C@]([C@@H](OC(CC)=O)CC1)(C)CC2)CCC4=CC(=O)CC[C@]34C,water,4.2658E-06,5774,-5.370000019,
1287,tetrabromomethane,BrC(Br)(Br)Br,water,0.000724436,10732,-3.14,
1287,tetrabromomethane,C(Br)(Br)(Br)Br,water,0.000724436,10732,-3.14,
1287,tetracaine,O=C(OCCN(C)C)c1ccc(NCCCC)cc1,water,0.000975214,5218,-3.0109,
1287,tetracene,c4c3cc2cc1ccccc1cc2cc3ccc4,water,2.512E-09,6813,-8.599980365,
1287,tetrachloromethane,ClC(Cl)(Cl)Cl,water,0.005128614,5730,-2.29,
1287,tetrachloromethane,ClC(Cl)(Cl)Cl,water,0.004897788,5730,-2.31,
1287,tetracycline,N(C4C3CC2C(c1c(c(ccc1)O)C(=O)C2=C(C3(C(=O)C(=C4O)C(=O)N)O)O)(O)C)(C)C,water,0.000758578,10444406,-3.12,
1287,Tetradecane,C(CCCCCCC)CCCCCC,water,1.0965E-08,11883,-7.959991364,
1287,tetradecanoic acid,OC(=O)CCCCCCCCCCCCC,water,4.67735E-06,10539,-5.330000038,
1287,tetrahydrofuran,O1CCCC1,water,3.630780548,7737,0.56,
1287,tetrahydrofuran,O1CCCC1,water,14.12537545,7737,1.15,
1287,tetrahydropyran,O1CCCCC1,water,0.933254301,8554,-0.03,
1287,tetrahydropyran,C1CCCCO1,water,0.933254301,8554,-0.03,
1287,tetramethylurea,N(C)(C)C(=O)N(C)C,water,8.7096359,11930,0.94,
1029,tetraphenylmethane,c1c(cccc1)C(c2ccccc2)(c3ccccc3)c4ccccc4,water,1.58489E-08,11917,-7.799999998,
1287,tetroxoprim,Nc1nc(c(cn1)Cc2cc(c(c(c2)OC)OCCOC)OC)N,water,0.007943282,58910,-2.1,
1287,thalidomide,N2(C(=O)c1c(cccc1)C2=O)C3CCC(=O)NC3=O,water,0.002089296,5233,-2.68,
1287,thebainone,N1(C4C2C(CC1)(CC(=O)C=C2)c3c(ccc(c3O)OC)C4)C,water,0.013489629,4323111,-1.87,
1049,theobromine,Cn1cnc2c1c(=O)[nH]c(=O)n2C,water,0.002349633,5236,-2.629,
1287,theobromine,Cn1cnc2c1c(=O)[nH]c(=O)n2C,water,0.002398833,5236,-2.62,
1287,theobromine,Cn1cnc2c1c(=O)[nH]c(=O)n2C,water,0.003019952,5236,-2.52,
1049,theophylline,Cn1c2c(c(=O)n(c1=O)C)[nH]cn2,water,0.063679552,2068,-1.196,
1287,theophylline,N2(c1nc[nH]c1C(=O)N(C2=O)C)C,water,0.040738028,2068,-1.39,
1287,theophylline,[nH]1cnc2c1C(=O)N(C(=O)N2C)C,water,0.040738028,2068,-1.39,
1049,thiamphenicol,ClC(Cl)C(=O)N[C@@H]([C@H](O)c1ccc(cc1)S(=O)(=O)C)CO,water,0.013867558,25315,-1.858,
1287,thiamylal,S=C1NC(=O)C(C(=O)N1)(C(CCC)C)CC=C,water,0.000346737,2297298,-3.460000001,
1009,thiaxanthone,O=C1c3c(Sc2c1cccc2)cccc3,water,2.88403E-06,9873,-5.54,
1287,thioanisole,S(C)c1ccccc1,water,0.004073803,7239,-2.39,
1287,thiofanox,S(CC(=NOC(=O)NC)C(C)(C)C)C,water,0.023988329,4514653,-1.62,
1287,thiometon,S(P(=S)(OC)OC)CCSCC,water,0.000812831,12024,-3.09,
1287,thiopental,S=C1NC(=O)C(C(=O)N1)(C(CCC)C)CC,water,0.000436516,2272258,-3.36,
1287,thiophene,s1cccc1,water,0.035481339,7739,-1.45,
1287,thiophene-3-carboxylic acid,s1cc(cc1)C(=O)O,water,0.033884416,6652,-1.47,
1287,thiophenol,Sc1ccccc1,water,0.007585776,7681,-2.12,
1294,thiotriazinone,O=C1C(=O)NC(=S)N(N1)C,water,0.079308905,2299076,-1.100678045,
1287,thiourea,S=C(N)N,water,2.089296131,2005981,0.32,
1287,thiram,S(SC(=S)N(C)C)C(=S)N(C)C,water,0.000125893,5256,-3.900000001,
1287,threonine,NC(C(O)C)C(=O)O,water,0.812830516,200,-0.09,
1049,thymine,Cc1c[nH]c(=O)[nH]c1=O,water,0.026668587,1103,-1.574,
1287,thymine,Cc1c[nH]c(=O)[nH]c1=O,water,0.030199517,1103,-1.52,
1287,thymol,Oc1c(ccc(c1)C)C(C)C,water,0.006025596,21105998,-2.22,
1287,tolazamide,S(=O)(=O)(NC(=O)NN1CCCCCC1)c2ccc(cc2)C,water,0.00020893,5302,-3.68,
1287,tolbutamide,S(=O)(=O)(NC(=O)NCCCC)c1ccc(cc1)C,water,0.00040738,5304,-3.39,
1287,tolcyclamide,S(=O)(=O)(NC(=O)NC1CCCCC1)c2ccc(cc2)C,water,6.16595E-05,12107,-4.210000001,
1287,tolmetin,O=C(c1ccc(n1C)CC(=O)O)c2ccc(cc2)C,water,0.006520787,5308,-2.1857,
1287,tolmetin,O=C(c1ccc(n1C)CC(=O)O)c2ccc(cc2)C,water,8.09282E-05,5308,-4.091900001,
1287,toluene,Cc1ccccc1,water,0.00616595,1108,-2.21,
1287,trans-2-heptene,CC=CCCCC,water,0.000151356,555074,-3.82,
1287,"trans-2,5-dimethylpiperazine",N1C(CNC(C1)C)C,water,3.090295433,7528,0.49,
907,trans-stilbene,c1ccc(cc1)/C=C/c2ccccc2,water,1.62138E-06,553649,-5.790116394,
1287,triallate,ClC(=C(Cl)Cl)CSC(=O)N(C(C)C)C(C)C,water,1.31826E-05,5342,-4.880000013,
1049,triamcinolone,O=C(CO)[C@]3(O)[C@]2(C[C@H](O)[C@]4(F)[C@@]/1(\C(=C/C(=O)\C=C\1)CC[C@H]4[C@@H]2C[C@H]3O)C)C,water,0.000243781,29046,-3.613,
1287,triamcinolone,O=C(CO)[C@]3(O)[C@]2(C[C@H](O)[C@]4(F)[C@@]/1(\C(=C/C(=O)\C=C\1)CC[C@H]4[C@@H]2C[C@H]3O)C)C,water,0.000425893,29046,-3.3707,
1287,triamcinolone,O=C(CO)[C@]3(O)[C@]2(C[C@H](O)[C@]4(F)[C@@]/1(\C(=C/C(=O)\C=C\1)CC[C@H]4[C@@H]2C[C@H]3O)C)C,water,0.00020893,29046,-3.68,
1287,triamcinolone acetonide,O=C\1\C=C5/[C@@](/C=C/1)(C)[C@]2(F)[C@H]([C@H]3[C@](C[C@@H]2O)([C@@]4(OC(O[C@@H]4C3)(C)C)C(=O)CO)C)CC5,water,4.7863E-05,6196,-4.320000002,
1049,triamterene,n1c3c(nc(c1c2ccccc2)N)nc(nc3N)N,water,0.00011324,5345,-3.946,
1287,triamterene,Nc2nc1nc(c(nc1c(n2)N)-c3ccccc3)N,water,0.003981072,5345,-2.4,
1287,tributoxy-hydroxyphosphanium,P(=O)(OCCCC)(OCCCC)OCCCC,water,0.001425608,29090,-2.846,
1287,tributylamine,N(CCCC)(CCCC)CCCC,water,0.000758578,7340,-3.12,
1287,tricresyl phosphate,P(=O)(Oc1c(cccc1)C)(Oc2cc(ccc2)C)Oc3ccc(cc3)C,water,9.77237E-07,10468621,-6.010000098,
1287,tricresyl phosphate,P(=O)(Oc1c(cccc1C)O)(Oc2c(ccc(c2)O)C)Oc3c(cc(cc3)O)C,water,1.99526E-07,23076090,-6.700000504,
1287,tricyclazole,s2c1n(cnn1)c3c2cccc3C,water,0.00851138,35726,-2.07,
1287,triethyl phosphate,P(=O)(OCC)(OCC)OCC,water,2.691534804,6287,0.43,
1287,triethylamine,N(CC)(CC)CC,water,0.72443596,8158,-0.14,
1287,trifluoromethylbenzene,FC(F)(F)c1ccccc1,water,0.003090295,7090,-2.51,
1287,trifluralin,[N+](=O)([O-])c1c(c(cc(c1)C(F)(F)F)[N+](=O)[O-])N(CCC)CCC,water,2.0893E-06,5368,-5.680000027,
1287,trimazosin,N1(CCN(CC1)C(=O)OCC(O)(C)C)c2nc3c(c(n2)N)cc(c(c3OC)OC)OC,water,0.000229087,34203,-3.640000001,
1049,trimethoprim,COc1cc(cc(c1OC)OC)Cc2cnc(nc2N)N,water,0.004446313,5376,-2.352,
1287,trimethoprim,COc1cc(cc(c1OC)OC)Cc2cnc(nc2N)N,water,0.001380384,5376,-2.86,
1287,trimethoprim,COc1cc(cc(c1OC)OC)Cc2cnc(nc2N)N,water,0.00111918,5376,-2.9511,
1287,trimethylamine,N(C)(C)C,water,6.918309709,1114,0.84,
1287,trimipramine,c1cc3c(cc1)CCc2c(cccc2)N3CC(C)CN(C)C,water,1.62592E-05,5382,-4.788899999,
1287,tripelenamine,N(CCN(Cc1ccccc1)c2ncccc2)(C)C,water,0.002290868,5385,-2.64,
1287,triphenylene,c41c(c3c(c2c1cccc2)cccc3)cccc4,water,1.8197E-07,8816,-6.740000205,
1287,triphenylene,c3cccc4c1ccccc1c2ccccc2c43,water,1.8197E-07,8816,-6.740000205,
1287,tripropylamine,N(CCC)(CCC)CCC,water,0.005248075,7334,-2.28,
1287,tryptamine,c1ccc2c(c1)c(c[nH]2)CCN,water,0.000506291,1118,-3.2956,