Experiment Number (900 series refer to external references),solute,solute SMILES,solvent,concentration (M),csid,solubility,
1287,"6,7-Dimethoxy-4-nitro-2-benzofuran-1(3H)-one",COc1cc(c2c(c1OC)C(=O)OC2)[N+](=O)[O-],water,0.000618016,28295154,-3.209,
1287,"6,7-dimethoxyquinoxalin-5-amine",c1(c2c(cc(c1OC)OC)nccn2)N,water,0.019498446,194435,-1.71,
1287,"6,7-dimethylpteridin-4-ol",c21c(nc(c(n1)C)C)N=CNC2=O,water,0.005164164,4511721,-2.287,
1287,"6,7-diphenylpteridin-4-ol",c1(c(nc2c(n1)C(=O)NC=N2)-c3ccccc3)-c4ccccc4,water,0.000665273,4696705,-3.177,
1287,"6,8-dimethylpteridin-7-one",c21c(cncn1)N=C(C(=O)N2C)C,water,0.032433962,10469280,-1.489,
1287,"6,9-difluoro-11,17-dihydroxy-17-(2-hydroxyacetyl)-10,13,16-trimethyl-6,7,8,11,12,14,15,16-octahydrocyclopenta[a]phenanthren-3-one",FC32C(C1C(C(C(C1)C)(O)C(=O)CO)(CC2O)C)CC(C4=CC(=O)C=CC43C)F,water,2.45471E-06,3258,-5.609999985,
1287,64069-63-2,N2(C3C1OC1C2CC(C3)OC(=O)C(CO)c4ccccc4)C,water,0.331131121,4997,-0.48,
1287,"6a,7,8,9-tetrahydro-5H-pyrrolo[2,1-c][1,4]benzodiazepine-6,11-dione",N32C(C(=O)Nc1c(cccc1)C2=O)CCC3,water,0.000179887,479457,-3.744999999,
1287,7-(3-amino-2-ethylazetidin-1-yl)-1-cyclopropyl-6-fluoro-4-oxoquinoline-3-carboxylic acid,c31c(cc(c(c1)N2C(C(C2)N)CC)F)C(=O)C(=CN3C4CC4)C(=O)O,water,0.000122462,18774074,-3.912,
1287,"7-(3-amino-2-ethylazetidin-1-yl)-1-cyclopropyl-6,8-difluoro-4-oxoquinoline-3-carboxylic acid",c31c(cc(c(c1F)N2C(C(C2)N)CC)F)C(=O)C(=CN3C4CC4)C(=O)O,water,0.00015417,16218958,-3.812000001,
1287,7-(3-amino-2-methylazetidin-1-yl)-1-cyclopropyl-6-fluoro-4-oxoquinoline-3-carboxylic acid,c31c(cc(c(c1)N2C(C(C2)N)C)F)C(=O)C(=CN3C4CC4)C(=O)O,water,2.35505E-05,16075491,-4.627999997,
1287,"7-(3-amino-2-methylazetidin-1-yl)-1-cyclopropyl-6,8-difluoro-4-oxoquinoline-3-carboxylic acid",c31c(cc(c(c1F)N2C(C(C2)N)C)F)C(=O)C(=CN3C4CC4)C(=O)O,water,6.71429E-05,16218959,-4.173000002,
1287,7-(3-amino-2-methylazetidin-1-yl)-8-chloro-1-cyclopropyl-6-fluoro-4-oxoquinoline-3-carboxylic acid,c31c(cc(c(c1Cl)N2C(C(C2)N)C)F)C(=O)C(=CN3C4CC4)C(=O)O,water,3.28852E-05,14263019,-4.483000001,
1287,"7-(3-amino-2,3-dimethylazetidin-1-yl)-1-cyclopropyl-6-fluoro-4-oxoquinoline-3-carboxylic acid",c31c(cc(c(c1)N2C(C(C2)(N)C)C)F)C(=O)C(=CN3C4CC4)C(=O)O,water,3.77572E-06,23211703,-5.42299999,
1287,"7-(3-amino-2,3-dimethylazetidin-1-yl)-1-cyclopropyl-6,8-difluoro-4-oxoquinoline-3-carboxylic acid",N4(c1c(c2c(cc1F)C(=O)C(=CN2C3CC3)C(=O)O)F)C(C(C4)(N)C)C,water,9.09913E-06,16218976,-5.040999987,
1287,7-(3-amino-3-methylazetidin-1-yl)-1-cyclopropyl-6-fluoro-4-oxoquinoline-3-carboxylic acid,c31c(cc(c(c1)N2CC(C2)(N)C)F)C(=O)C(=CN3C4CC4)C(=O)O,water,2.42103E-06,9898963,-5.616000008,
1287,"7-(3-amino-3-methylazetidin-1-yl)-1-cyclopropyl-6,8-difluoro-4-oxoquinoline-3-carboxylic acid",c31c(cc(c(c1F)N2CC(C2)(N)C)F)C(=O)C(=CN3C4CC4)C(=O)O,water,2.29615E-06,115238,-5.638999933,
1287,7-(3-amino-3-methylazetidin-1-yl)-8-chloro-1-cyclopropyl-6-fluoro-4-oxoquinoline-3-carboxylic acid,c31c(cc(c(c1Cl)N2CC(C2)(N)C)F)C(=O)C(=CN3C4CC4)C(=O)O,water,4.65586E-06,8047608,-5.331999994,
1287,7-(3-aminoazetidin-1-yl)-1-cyclopropyl-6-fluoro-4-oxoquinoline-3-carboxylic acid,c31c(cc(c(c1)N2CC(C2)N)F)C(=O)C(=CN3C4CC4)C(=O)O,water,4.74242E-06,8262717,-5.323999987,
1287,"7-(3-aminoazetidin-1-yl)-1-cyclopropyl-6,8-difluoro-4-oxoquinoline-3-carboxylic acid",c31c(cc(c(c1F)N2CC(C2)N)F)C(=O)C(=CN3C4CC4)C(=O)O,water,5.3827E-06,8512475,-5.268999986,
1287,7-(benzyloxy)-8-methyl-2-(morpholin-4-yl)-4H-chromen-4-one,c31c(ccc(c1C)OCc2ccccc2)C(=O)C=C(O3)N4CCOCC4,water,6.88652E-06,9770257,-5.161999998,
1287,7-Allyl-8-quinazolinol,C=CCc1ccc2cncnc2c1O,water,0.000239883,28295172,-3.62,
1287,7-aminonaphthalene-1-sulfonic acid,c21c(cccc1ccc(c2)N)S(=O)(=O)O,water,0.002910717,6589,-2.536,
1287,"7-chloro-1-methyl-5-phenyl-2,3-dihydro-1,4-benzodiazepine",c21c(ccc(c1)Cl)N(CCN=C2c3ccccc3)C,water,0.000175792,3901,-3.755000001,
1287,"7-chloro-2-ethyl-4-oxo-2,3-dihydro-1H-quinazoline-6-sulfonamide",Clc1c(cc2c(c1)NC(NC2=O)CC)S(=O)(=O)N,water,0.000512861,6068,-3.29,
1287,"7-chloro-2-methyl-3-(2-methylphenyl)-4-oxo-1,2-dihydroquinazoline-6-sulfonamide",Clc1c(cc2c(c1)NC(N(C2=O)c3c(cccc3)C)C)S(=O)(=O)N,water,0.000165959,4026,-3.779999999,
1287,"7-Chloro-2',4'-dihydroxy-4,6-dimethoxy-6'-methyl-3H-spiro[1-benzofuran-2,1'-cyclohexan]-3-one",CC1CC(CC(C12C(=O)c3c(cc(c(c3O2)Cl)OC)OC)O)O,water,0.004602566,28295113,-2.337,
1287,"7-chloro-3-hydroxy-5-phenyl-1,3-dihydro-1,4-benzodiazepin-2-one",Clc1cc2c(cc1)NC(=O)C(N=C2c3ccccc3)O,water,0.000112202,4455,-3.950000002,
1287,"7-chloro-3,4-dihydro-1H-1,4-benzodiazepine-2,5-dione",c21c(ccc(c1)Cl)NC(=O)CNC2=O,water,0.000899498,293009,-3.046,
1287,"7-chloro-3'-ethoxy-4,6-dimethoxy-5'-methylspiro[1-benzofuran-2,4'-cyclohex-2-ene]-1',3-dione",C32(C(=O)c1c(c(c(cc1OC)OC)Cl)O2)C(=CC(=O)CC3C)OCC,water,0.00001,8865637,-5,
1287,"7-chloro-3'-ethoxy-4,6-dimethoxy-5'-methylspiro[1-benzofuran-2,6'-cyclohex-2-ene]-1',3-dione",C32(C(=O)c1c(c(c(cc1OC)OC)Cl)O2)C(CC(=CC3=O)OCC)C,water,2.50035E-05,10468680,-4.601999993,
1287,"7-chloro-3',4,6-trimethoxy-5'-methylspiro[1-benzofuran-2,4'-cyclohex-2-ene]-1',3-dione",Clc1c2c(c(cc1OC)OC)C(=O)C3(O2)C(CC(=O)C=C3OC)C,water,2.45471E-05,3392,-4.610000003,
1287,"7-chloro-3',4,6-trimethoxy-5'-methylspiro[1-benzofuran-2,4'-cyclohex-2-ene]-1',3-dione",C32(C(=O)c1c(c(c(cc1OC)OC)Cl)O2)C(=CC(=O)CC3C)OC,water,1.97697E-05,3392,-4.704000009,
1287,"7-chloro-3',4,6-trimethoxy-5'-methylspiro[1-benzofuran-2,6'-cyclohex-2-ene]-1',3-dione",C32(C(=O)c1c(c(c(cc1OC)OC)Cl)O2)C(CC(=CC3=O)OC)C,water,3.99945E-05,9693,-4.398,
1287,"7-chloro-3',6-diethoxy-4-methoxy-5'-methylspiro[1-benzofuran-2,4'-cyclohex-2-ene]-1',3-dione",C32(C(=O)c1c(c(c(cc1OC)OCC)Cl)O2)C(=CC(=O)CC3C)OCC,water,1.99986E-05,10469270,-4.698999993,
1287,"7-chloro-4-(dimethylamino)-3,6,10,12,12a-pentahydroxy-1,11-dioxo-1,4,4a,5,5a,6,11,12a-octahydrotetracene-2-carboxamide",Clc1c3c(c(cc1)O)C(=O)C2=C(C4(C(CC2C3O)C(C(=C(C4=O)C(=O)N)O)N(C)C)O)O,water,0.003019952,10444445,-2.52,
1287,"7-chloro-4,6-dimethoxy-5'-methyl-3'-propoxyspiro[1-benzofuran-2,4'-cyclohex-2-ene]-1',3-dione",C32(C(=O)c1c(c(c(cc1OC)OC)Cl)O2)C(=CC(=O)CC3C)OCCC,water,2.99226E-05,10469111,-4.524000005,
1287,"7-chloro-4,6-dimethoxy-5'-methyl-3'-propoxyspiro[1-benzofuran-2,6'-cyclohex-2-ene]-1',3-dione",C32(C(=O)c1c(c(c(cc1OC)OC)Cl)O2)C(CC(=CC3=O)OCCC)C,water,5.98412E-06,10469112,-5.222999996,
1287,7-chloropteridine,Clc2nc1ncncc1nc2,water,0.134896288,10468612,-0.87,
1287,7-diethylamino-4-methylchromen-2-one,c21c(ccc(c1)N(CC)CC)C(=CC(=O)O2)C,water,9.977E-05,6783,-4.001000002,
1287,7-hydroxy-2-(4-hydroxyphenyl)-5-methoxy-8-(3-methylbut-2-enyl)chroman-4-one,c21c(c(c(cc1OC)O)CC=C(C)C)OC(CC2=O)c3ccc(cc3)O,water,3.66438E-06,447736,-5.43599997,
1287,"7-hydroxy-4-oxo-6,7-dihydro-5H-thieno[4,5-b]thiopyran-2-sulfonamide",c1(sc2c(c1)S(=O)CCC2O)S(=O)(=O)N,water,0.026915348,10438771,-1.57,
1287,"7-hydroxy-4,4-dioxo-6,7-dihydro-5H-thieno[4,5-b]thiopyran-2-sulfonamide",c21c(sc(c1)S(=O)(=O)N)C(CCS2(=O)=O)O,water,0.052966344,10439287,-1.276,
1287,"7-hydroxy-6,7-dihydro-5H-thieno[4,5-b]thiopyran-2-sulfonamide",c21c(cc(s1)S(=O)(=O)N)SCCC2O,water,0.005571857,10438330,-2.254,
1287,"7-Methoxy-1-methyl-9H-pyrido[3,4-b]indole",c21c3c([nH]c1c(ncc2)C)cc(cc3)OC,water,3.31131E-05,4444445,-4.480000002,
1287,"7-methoxy-1,3,3a,4,5,6-hexahydrobenzo[de]isoquinoline-2-carboxamidine",c21c3c(ccc1CN(CC2CCC3)C(=N)N)OC,water,0.060117374,25040373,-1.221,
1287,7-methoxychromen-2-one,c21c(ccc(c1)OC)C=CC(=O)O2,water,0.000755092,10295,-3.122,
1287,7-methoxypteridine,n2c1nc(cnc1cnc2)OC,water,0.123026877,10465137,-0.91,
1287,7-methoxypteridine,n2c1ncc(nc1cnc2)OC,water,0.072443596,10465164,-1.14,
1287,7-methylpteridine,n2c1nc(cnc1cnc2)C,water,1.148153621,512534,0.06,
1287,7-methylsulfanylpteridine,CSc1cnc2cncnc2n1,water,0.028183829,10465165,-1.55,
1287,7-methylsulfanylpteridine,CSc1cnc2cncnc2n1,water,0.028054336,10465165,-1.552,
1287,7-nitrooxyheptyl nitrate,[N+](=O)(OCCCCCCCO[N+](=O)[O-])[O-],water,0.000400867,8306218,-3.397,
1287,"7-oxo-5,6-dihydrothieno[4,5-b]thiopyran-2-sulfonamide",c21c(cc(s1)S(=O)(=O)N)SCCC2=O,water,0.000320627,10438326,-3.494000001,
1287,"7,12-dimethylbenzo[b]phenanthrene",Cc2c1c4c(ccc1c(c3c2cccc3)C)cccc4,water,9.5499E-08,5779,-7.020001176,
1287,"7,7-dioxo-5,6-dihydro-4H-thieno[5,4-b]thiopyran-2-sulfonamide",c21c(cc(s1)S(=O)(=O)N)CCCS2(=O)=O,water,0.002094112,10469314,-2.679,
1287,"8-(4-hydroxybutyl)-4H-thieno[3,2-c][1]benzoxepin-10-one",c31c(ccc(c1)CCCCO)OCc2c(scc2)C3=O,water,0.000121339,119084,-3.916,
1287,8-(trifluoromethyl)-7H-purine,C(c1[nH]c2c(n1)ncnc2)(F)(F)F,water,0.353997341,311366,-0.451,
1287,"8-Amino-2,10-dimethyldibenzo[b,f][1,4]oxazepin-11(10H)-one",Cc1ccc2c(c1)C(=O)N(c3cc(ccc3O2)N)C,water,0.00011749,28295180,-3.930000002,
1287,"8-Azabicyclo[3.2.1]octane-2-carboxylic acid, 3-hydroxy-8-methyl-, (2-endo,3-exo)-",N1(C2C(C(CC1CC2)O)C(=O)O)C,water,0.954992586,220719,-0.02,
1287,"8-chloro-1-methyl-6-phenyl-4H-[1,2,4]triazolo[4,3-a][1,4]benzodiazepine",n-21c(nnc1C)CN=C(c3c-2ccc(c3)Cl)c4ccccc4,water,0.000368978,2034,-3.432999999,
1287,"8-chloro-6-(2-chlorophenyl)-1-methyl-4H-[1,2,4]triazolo[4,3-a][1,4]benzodiazepine",Clc1c(cccc1)C3=NCc2n(c(nn2)C)-c4c3cc(cc4)Cl,water,8.31764E-05,5355,-4.080000001,
1287,"8-chloro-6-(4-methylpiperazin-1-yl)benzo[b][1,5]benzoxazepine",C2(=Nc1c(cccc1)Oc3c2cc(cc3)Cl)N4CCN(CC4)C,water,3.81066E-05,3827,-4.419000004,
1287,"8-hydroxy-5,7-dinitronaphthalene-2-sulfonic acid",c21c(c(cc(c1O)[N+](=O)[O-])[N+](=O)[O-])ccc(c2)S(=O)(=O)O,water,0.002904023,9809,-2.537,
1287,"8-hydroxy-6a,7,8,9-tetrahydro-5H-pyrrolo[2,1-c][1,4]benzodiazepine-6,11-dione",N32C(C(=O)Nc1c(cccc1)C2=O)CC(C3)O,water,0.004295364,3899848,-2.367,
1287,8-hydroxy-7-iodoquinoline-5-sulfonic acid,c21c(cc(c(c1nccc2)O)I)S(=O)(=O)O,water,0.006324119,10575,-2.199,
1287,8-methyl-2-morpholin-4-yl-7-(pyridin-2-ylmethoxy)chromen-4-one,c31c(ccc(c1C)OCc2ncccc2)C(=O)C=C(O3)N4CCOCC4,water,3.54813E-05,14001911,-4.449999999,
1287,8-nitrooxyoctyl nitrate,[N+](=O)(OCCCCCCCCO[N+](=O)[O-])[O-],water,7.19449E-05,8418667,-4.142999999,
1287,8-Phenyl-7H-purine,C1(=NC2C(=N1)C=NC=N2)c3ccccc3,water,0.000860994,201641,-3.065,
1287,8H-pteridine-7-thione,S=C2Nc1ncncc1N=C2,water,0.001949845,10468300,-2.71,
1287,"9-(Dimethylamino)-11-ethyl-7-methyl-6,11-dihydro-5H-pyrido[2,3-b][1,5]benzodiazepin-5-one",CCN1c2cc(cc(c2NC(=O)c3c1nccc3)C)N(C)C,water,1.34896E-05,28295210,-4.869999994,
1287,"9-Chloro-11-ethyl-6,11-dihydro-5H-pyrido[2,3-b][1,5]benzodiazepin-5-one",CCN1c2cc(ccc2NC(=O)c3c1nccc3)Cl,water,4.36516E-06,28295215,-5.360000032,
1287,"9-fluoro-11,16,17-trihydroxy-17-(2-hydroxyacetyl)-10,13-dimethyl-6,7,8,11,12,14,15,16-octahydrocyclopenta[a]phenanthren-3-one",FC32C(C1C(C(C(C1)O)(O)C(=O)CO)(CC2O)C)CCC4=CC(=O)C=CC43C,water,0.000204174,5343,-3.690000001,
1287,"9-hydroxy-1,5,8-trimethyl-1,3a,4,5,5a,6,9,9a-octahydroazuleno[5,6-d]furan-2,7-dione",C21=C(C(=O)CC1C(CC3C(C2O)C(C(=O)O3)C)C)C,water,0.011350108,514615,-1.945,
1287,"9-hydroxyfuro[3,2-g]chromen-7-one",c21c(c3c(cc1C=CC(=O)O2)cco3)O,water,0.000608135,58600,-3.216,
1287,"9-Methyl-1,2-dihydrocyclopenta[ij]tetraphene",Cc1ccc2c(c1)ccc3c2cc4cccc5c4c3CC5,water,1.2023E-08,28295222,-7.919987153,
1287,"9-methyl-3,7-dihydropurine-2,6,8-trione",C21=C(C(=O)NC(=O)N1)NC(=O)N2C,water,0.000115345,97755,-3.937999999,
1287,9-methylanthracene,Cc1c2ccccc2cc3c1cccc3,water,1.28825E-06,12524,-5.889999849,
1287,"9,10-Dimethylanthracene",Cc1c3c(c(c2c1cccc2)C)cccc3,water,2.69153E-07,12532,-6.570000775,
1287,94-75-7,Clc1c(ccc(c1)Cl)OCC(=O)O,water,0.003090295,1441,-2.51,
1287,"9H-Pyrido[3,4-B]indole",c21c3c([nH]c1cncc2)cccc3,water,0.000186209,58486,-3.729999999,
1287,a-amino-1H-indazole-3-propanoic acid,c21c(n[nH]c1cccc2)CC(C(=O)O)N,water,0.039174188,86015,-1.407,
1287,a-endosulfan,ClC3(Cl)[C@]1(Cl)C(/Cl)=C(/Cl)[C@@]3(Cl)[C@@H]2COS(=O)OC[C@H]12,water,1.1749E-06,16736498,-5.929999835,
1287,abate,S(c1ccc(cc1)OP(=S)(OC)OC)c2ccc(cc2)OP(=S)(OC)OC,water,5.7544E-07,5199,-6.239999953,
1287,abietic acid,OC(=O)C3(C2C(C1CCC(=CC1=CC2)C(C)C)(CCC3)C)C,water,0.000158489,82077,-3.800000001,
1002,aceclofenac,Clc2cccc(Cl)c2Nc1ccccc1CC(=O)OCC(=O)O,water,0.003,64809,-2.540630132,
1002,aceclofenac alanine methyl aster,CC(C(=O)OC)NC(=O)COC(=O)CC1=CC=CC=CC1NC2=C(CC=CC=C2Cl)Cl,water,0.035,25999991,-1.452717692,
1002,aceclofenac leucine methyl aster,CC(C)CC(C(=O)OC)NC(=O)COC(=O)CC1=CC=CC=CC1NC2=C(C=CC=CC2Cl)Cl,water,0.022,25999992,-1.653255945,
1002,aceclofenac proline methyl aster,COC(=O)C1CCCN1C(=O)COC(=O)CC2=CC(C=CC=C2)NC3=C(C=CC=CC3Cl)Cl,water,0.031,25999993,-1.504816568,
1002,aceclofenac valine methyl aster,CC(C)C(C(=O)OC)NC(=O)COC(=O)CC1=CC(C=CC=C1)NC2=C(C=CC=CC2Cl)Cl,water,0.025,25999994,-1.599082277,
1036,acenaphthene,c1cc2cccc3c2c(c1)CC3,water,2.88403E-05,6478,-4.54,
1287,acenaphthene,c1cc2cccc3c2c(c1)CC3,water,2.34423E-05,6478,-4.630000003,
1287,acenaphthylene,c1cc2cccc3c2c(c1)C=C3,water,0.000109648,8807,-3.959999998,
1287,acephate,S(P(=O)(NC(=O)C)OC)C,water,3.467368505,1905,0.54,
1287,acetamide,NC(=O)C,water,38.01893963,173,1.58,
1287,acetamide,C(=O)(C)N,water,38.01893963,173,1.58,
924,acetaminophen,O=C(Nc1ccc(O)cc1)C,water,0.099,1906,-1.004364805,
929,acetaminophen,O=C(Nc1ccc(O)cc1)C,water,0.093,1906,-1.033317467,
1049,acetaminophen,CC(=O)Nc1ccc(cc1)O,water,0.083752928,1906,-1.077,
1287,acetaminophen,CC(=O)Nc1ccc(cc1)O,water,0.09332543,1906,-1.03,
1287,acetaminophen,n1ccn(c1)Cc2ccccc2,water,0.086337606,70309,-1.0638,
1299,acetaminophen,CC(=O)Nc1ccc(cc1)O,water,0.1029,1906,-0.987584625,
931,acetanilide,O=C(Nc1ccccc1)C,water,0.110,880,-0.959999998,
969,acetanilide,O=C(Nc1ccccc1)C,water,0.040,880,-1.397940009,
1154,acetanilide,O=C(Nc1ccccc1)C,water,0.044168222,880,-1.35489008,
1157,acetanilide,O=C(Nc1ccccc1)C,water,0.064019235,880,-1.19368952,
1287,acetanilide,O=C(Nc1ccccc1)C,water,0.046773514,880,-1.33,
1049,acetazolamide,O=S(=O)(c1nnc(s1)NC(=O)C)N,water,0.003605786,1909,-2.443,
1287,acetazolamide,S(=O)(=O)(N)c1sc(nn1)NC(=O)C,water,0.004365158,1909,-2.36,
1287,acetazolamide,O=S(=O)(c1nnc(s1)NC(=O)C)N,water,0.003671132,1909,-2.4352,
1287,acetazolamide,O=S(=O)(c1nnc(s1)NC(=O)C)N,water,0.003199632,1909,-2.4949,
1287,acetic acid,OC(=O)C,water,16.59586907,171,1.22,
1287,acetohexamide,S(=O)(=O)(NC(=O)NC1CCCCC1)c2ccc(cc2)C(=O)C,water,0.008709636,1912,-2.06,
1287,acetonitrile,N#CC,water,1.819700859,6102,0.26,
1287,acetonitrile,C(#N)C,water,1.819700859,6102,0.26,
1287,acetophenone,O=C(C)c1ccccc1,water,0.052480746,7132,-1.28,
1287,acetyl sulfisoxazole,S(=O)(=O)(N(c1onc(c1C)C)C(=O)C)c2ccc(cc2)N,water,0.00025704,6410,-3.59,
1287,acetylene,C#C,water,1.9498446,6086,0.29,
907,acetylsalicylic acid,O=C(Oc1ccccc1C(=O)O)C,water,0.021,2157,-1.67141655,
907,acetylsalicylic acid,O=C(Oc1ccccc1C(=O)O)C,water,0.024,2157,-1.61225434,
907,acetylsalicylic acid,O=C(Oc1ccccc1C(=O)O)C,water,0.026,2157,-1.592949185,
907,acetylsalicylic acid,O=C(Oc1ccccc1C(=O)O)C,water,0.028,2157,-1.556737013,
1049,acetylsalicylic acid,CC(=O)Oc1ccccc1C(=O)O,water,0.020844909,2157,-1.681,
1287,acetylsalicylic acid,O(c1c(cccc1)C(=O)O)C(=O)C,water,0.019054607,2157,-1.72,
1287,acridine,n1c3c(cc2c1cccc2)cccc3,water,0.000213796,8860,-3.67,
1287,acrolein,O=CC=C,water,3.715352291,7559,0.57,
1287,acrolein,O=CC=C,water,9.332543008,7559,0.97,
1287,acrylamide,NC(=O)C=C,water,9.120108394,6331,0.96,
1287,acrylamide,C(=O)(C=C)N,water,9.54992586,6331,0.98,
1287,acrylonitrile,N#CC=C,water,1.412537545,7567,0.15,
1287,acrylonitrile,C(#N)C=C,water,1.412537545,7567,0.15,
1049,adenine,c1[nH]c2c(ncnc2n1)N,water,0.008892011,185,-2.051,
1287,adenine,[nH]2c1ncnc(c1nc2)N,water,0.007585776,185,-2.12,
1049,adenosine,c1nc(c2c(n1)n(cn2)[C@H]3[C@@H]([C@@H]([C@H](O3)CO)O)O)N,water,0.019769696,54923,-1.704,
1287,adipic acid,OC(=O)CCCCC(=O)O,water,0.151356125,191,-0.82,
1287,adrenosterone,O=C4C3(C(C2C(C1(CCC(=O)C=C1CC2)C)C(=O)C3)CC4)C,water,0.000331131,9408,-3.480000001,
1287,"Ajmalan-17,21-diol, (17R,21.alpha.)-",N53C6C2N(c1c(cccc1)C42C(C(C3C4)C(C(C5O)CC)C6)O)C,water,0.001513561,1989,-2.82,
1287,alachlor,CCc1cccc(c1N(COC)C(=O)CCl)CC,water,0.000549541,1994,-3.26,
1287,alachlor,CCc1cccc(c1N(COC)C(=O)CCl)CC,water,0.000897429,1994,-3.047,
1287,alachlor,CCc1cccc(c1N(COC)C(=O)CCl)CC,water,0.000676083,1994,-3.17,
969,alanine,O=C(O)C(N)C,water,1.870,582,0.271841607,
1287,aldicarb,S(C(C)(C)C=NOC(=O)NC)C,water,0.19498446,7844539,-0.71,
1287,aldosterone,[C@H]23[C@@H]([C@@]1(C(=CC(=O)CC1)CC2)C)[C@@H](O)C[C@]4([C@H]3CC[C@@H]4C(=O)CO)C=O,water,0.000141254,5633,-3.850000001,
1287,aldrin,ClC4(Cl)[C@@]2(Cl)C(/Cl)=C(/Cl)[C@]4(Cl)[C@@H]3[C@@H]\1C[C@@H](/C=C/1)[C@H]23,water,4.6774E-08,10292747,-7.329995489,
1287,aldrin,ClC4(Cl)[C@@]2(Cl)C(/Cl)=C(/Cl)[C@]4(Cl)[C@@H]3[C@@H]\1C[C@@H](/C=C/1)[C@H]23,water,5.01187E-07,10292747,-6.300000202,
1287,alizarin,Oc1c3c(ccc1O)C(=O)c2c(cccc2)C3=O,water,0.001659587,6056,-2.78,
1287,allantoin,N1C(C(=O)NC1=O)NC(=O)N,water,0.025118864,199,-1.6,
1287,allicin,S(=O)(SCC=C)CC=C,water,0.147910839,58548,-0.83,
1287,allobarbital,O=C1NC(=O)NC(=O)C1(C\C=C)C\C=C,water,0.008709636,5635,-2.06,
1049,allopurinol,c1c2c([nH]n1)ncnc2O,water,0.01,2010,-2,
1287,allopurinol,c1c2c([nH]n1)ncnc2O,water,0.005370318,2010,-2.27,
1287,allopurinol,[nH]1ncc2c1ncnc2O,water,0.004168694,2010,-2.38,
1287,allopurinol,N1=CNC(=O)c2cn[nH]c21,water,0.004168694,2010,-2.38,
1287,alloxan,N1C(=O)NC(=O)C(=O)C1=O,water,0.056234133,5577,-1.25,
1287,alloxanthin,N1C(=O)NC(=O)C(C1=O)(O)C2(C(=O)NC(=O)NC2=O)O,water,0.01023293,6195,-1.99,
1287,allyl chloride,ClCC=C,water,0.043651583,13836674,-1.36,
1287,alpha-Aminobutyric acid,NC(CC)C(=O)O,water,2.041737945,6405,0.31,
1287,alpha-estradiol,OC4C1(C(C3C(CC1)c2c(cc(cc2)O)CC3)CC4)C,water,1.44544E-05,437,-4.839999991,
1287,alprenolol,Cl.O(c1ccccc1C\C=C)CC(O)CNC(C)C,water,0.002321667,59744,-2.6342,
1287,altretamine,N(C)(C)c1nc(nc(n1)N(C)C)N(C)C,water,0.000436516,2038,-3.36,
1287,amantadine,C1C2CC3CC1CC(C2)(C3)N,water,0.01400877,2045,-1.8536,
1287,ametryn,S(C)c1nc(nc(n1)NCC)NC(C)C,water,0.000912011,12705,-3.04,
1287,amikacin,N(C1C(C(C(C(C1)N)OC2OC(C(C(C2O)O)O)CN)O)OC3OC(C(C(C3O)N)O)CO)C(=O)C(O)CCN,water,0.316227766,2057,-0.5,
1287,aminocarb,N(C)(C)c1c(cc(cc1)OC(=O)NC)C,water,0.004365158,15416,-2.36,
1287,aminophenazone,N1(N(C(=O)C(=C1C)N)c2ccccc2)C,water,0.239883292,2066,-0.62,
969,aminopyrene,c4cc2ccc1ccc(N)c3c1c2c(cc3)c4,water,0.244,14613,-0.612716981,
1049,aminopyrine,O=C2\C(=C(/N(N2c1ccccc1)C)C)N(C)C,water,0.091201084,5787,-1.04,
1287,aminopyrine,O=C2\C(=C(/N(N2c1ccccc1)C)C)N(C)C,water,0.231206479,5787,-0.636,
1287,aminopyrine,O=C2\C(=C(/N(N2c1ccccc1)C)C)N(C)C,water,0.234422882,5787,-0.63,
1287,amitraz,N(=C/N(\C=N\c1ccc(cc1C)C)C)\c2ccc(cc2C)C,water,3.38844E-06,33405,-5.469999944,
1287,amitraz,N(=C/N(\C=N\c1ccc(cc1C)C)C)\c2ccc(cc2C)C,water,6.72977E-05,33405,-4.171999998,
1287,amitriptyline,c3cc2c(/C(c1c(cccc1)CC2)=C\CCN(C)C)cc3,water,3.46737E-05,2075,-4.460000001,
1287,amitriptyline,c3cc2c(/C(c1c(cccc1)CC2)=C\CCN(C)C)cc3,water,2.82098E-05,2075,-4.549599993,
1287,amitriptyline,c3cc2c(/C(c1c(cccc1)CC2)=C\CCN(C)C)cc3,water,0.00010573,2075,-3.975800002,
1287,amitrole,[nH]1nc(nc1)N,water,3.311311215,1577,0.52,
969,amobarbital,O=C1NC(=O)NC(=O)C1(CCC(C)C)CC,water,0.002,2079,-2.698970004,
1287,amobarbital,O=C1NC(=O)NC(=O)C1(CCC(C)C)CC,water,0.002167704,2079,-2.664,
1287,amobarbital,N1C(=O)NC(=O)C(C1=O)(CCC(C)C)CC,water,0.002691535,2079,-2.57,
1287,amodiaquine,Clc1cc2nccc(c2cc1)Nc3cc(c(O)cc3)CN(CC)CC,water,1.61994E-06,2080,-5.790499998,
1049,ampicillin,O=C(O)[C@@H]2N3C(=O)[C@@H](NC(=O)[C@@H](c1ccccc1)N)[C@H]3SC2(C)C,water,0.022646443,6013,-1.645,
1287,amygdalin,N#CC(OC1OC(C(C(C1O)O)O)COC2OC(C(C(C2O)O)O)CO)c3ccccc3,water,0.169824365,2095,-0.77,
1287,amyl acetate,O(CCCCC)C(=O)C,water,0.012882496,11843,-1.89,
1287,amyl acetate,C(=O)(C)OCCCCC,water,0.012882496,11843,-1.89,
1287,anatran,O=S(=O)(c1c(Cl)cc2c(c1)S(=O)(=O)N[C@@H](N2)C(Cl)Cl)N,water,0.002089296,5036525,-2.68,
1287,anatran,O=S(=O)(c1c(Cl)cc2c(c1)S(=O)(=O)N[C@@H](N2)C(Cl)Cl)N,water,0.000660693,5036525,-3.18,
1287,ancymidol,n1cncc(c1)C(O)(C2CC2)c3ccc(cc3)OC,water,0.002511886,23841,-2.6,