"Molecule name","OriginalSmiles","Canonical_QSARr","InChI_Code_QSARr","InChI Key_QSARr","Salt_Solvent (Concatenate)","temp","method","type","group","basicOrAcidic","pKa"
"12880","N#CC1(=CCCN(C1)C)","CN1CC(=CCC1)C#N","InChI=1S/C7H10N2/c1-9-4-2-3-7(5-8)6-9/h3H,2,4,6H2,1H3","VVYCNKGYADUXMA-UHFFFAOYSA-N","?",,,"a/apparent","?","basic",6.35
"10913","O=C(OC)C(N)CC=1(N=CNC=1)","COC(O)C(=N)CC1=CNC=N1","InChI=1S/C7H11N3O2/c1-12-7(11)6(8)2-5-3-9-4-10-5/h3-4,7-8,11H,2H2,1H3,(H,9,10)","YOVNDOYXCCJMJC-UHFFFAOYSA-N","?, ?, ?, ?","25","potentiometric","a2/apparent","NH3(1+), ?, NH(1+), ?","basic",6.367499999999999
"15937","O=[N+]([O-])C=2(C=1(C(=NC=CC=1NCCC[NH+](C)C)C(C)=CC=2C))","CC1C=C(C)C2=NC=CC(NCCCN(C)C)=C2C=1[N+]([O-])=O","InChI=1S/C16H22N4O2/c1-11-10-12(2)16(20(21)22)14-13(6-8-18-15(11)14)17-7-5-9-19(3)4/h6,8,10H,5,7,9H2,1-4H3,(H,17,18)","DZPSRLSXIAQJMV-UHFFFAOYSA-N","?","25","spectrophotometric","a1/apparent","?","basic",6.37
"17819","SCC1(=NC=CN1)","SCC1NC=CN=1","InChI=1S/C4H6N2S/c7-3-4-5-1-2-6-4/h1-2,7H,3H2,(H,5,6)","FQXRXTUXSODUFZ-UHFFFAOYSA-N","?","25","potentiometric","a1/apparent","?","basic",6.37
"15472","[Br]C4(=CC3(=C(N1(CCOCC1))C2(=C(CCC2)N=C3C=C4)))","BrC1=CC2=C(C3CCCC=3N=C2C=C1)N1CCOCC1","InChI=1S/C16H17BrN2O/c17-11-4-5-15-13(10-11)16(19-6-8-20-9-7-19)12-2-1-3-14(12)18-15/h4-5,10H,1-3,6-9H2","JPGCFZOXMCUAHJ-UHFFFAOYSA-N","?","25","spectrophotometric","a1/thermodynamic","?","basic",6.38
"17646","N(N(C)C)(CC)C","CN(C)N(C)CC","InChI=1S/C5H14N2/c1-5-7(4)6(2)3/h5H2,1-4H3","LPIBBWREIUCAPF-UHFFFAOYSA-N","?","25","potentiometric","a1/apparent","?","basic",6.38
"10750","N(C1(=CC=CC=C1))(CCC)CC","CCN(CCC)C1C=CC=CC=1","InChI=1S/C11H17N/c1-3-10-12(4-2)11-8-6-5-7-9-11/h5-9H,3-4,10H2,1-2H3","PAZVJIOFFOOQLQ-UHFFFAOYSA-N","?","22",,"a/thermodynamic","?","basic",6.39
"14870","OC1(=C(O)C(=CC=C1C[NH+](C)C)CN(C)C)","CN(C)CC1C=CC(CN(C)C)=C(O)C=1O","InChI=1S/C12H20N2O2/c1-13(2)7-9-5-6-10(8-14(3)4)12(16)11(9)15/h5-6,15-16H,7-8H2,1-4H3","PHCWUUITHXDIIW-UHFFFAOYSA-N","?","25","potentiometric","a1/apparent","?","basic",6.39
"16907","O=C(C(C1(=CC=CC=C1))C2(=CC=CC=C2))CCN3(CCOCC3)","OC(=CCN1CCOCC1)C(C1=CC=CC=C1)C1=CC=CC=C1","InChI=1S/C20H23NO2/c22-19(11-12-21-13-15-23-16-14-21)20(17-7-3-1-4-8-17)18-9-5-2-6-10-18/h1-11,20,22H,12-16H2","FFIQZBJJRCMSME-UHFFFAOYSA-N","?","20","potentiometric","a/apparent","?","basic",6.39
"13830","N1(=C(NC=C1)C2(=CC=CC=C2))","C1=CC=CC=C1C1NC=CN=1","InChI=1S/C9H8N2/c1-2-4-8(5-3-1)9-10-6-7-11-9/h1-7H,(H,10,11)","ZCUJYXPAKHMBAZ-UHFFFAOYSA-N","?","25","potentiometric","a/thermodynamic","?","basic",6.39
"16517","SC(C(N1(C(=NC(=C1)C(=O)[O-])CC=CCC))C(=O)[O-])(C)C","CCC=CCC1=NC(=CN1C(=C(O)O)C(C)(C)S)C(O)=O","InChI=1S/C14H20N2O4S/c1-4-5-6-7-10-15-9(12(17)18)8-16(10)11(13(19)20)14(2,3)21/h5-6,8,19-21H,4,7H2,1-3H3,(H,17,18)","ONYNFWCXHXTXLJ-UHFFFAOYSA-N","?","25","potentiometric","a2/apparent","?","basic",6.4
"16432","OC(CN(CCO)CCCCCCCCCCCC)CC","CCCCCCCCCCCCN(CCO)CC(O)CC","InChI=1S/C18H39NO2/c1-3-5-6-7-8-9-10-11-12-13-14-19(15-16-20)17-18(21)4-2/h18,20-21H,3-17H2,1-2H3","ZDPGXSBGKCHBMG-UHFFFAOYSA-N","?","20","potentiometric","a1/apparent","-NH3%+&","basic",6.4
"10199","N1(=C(C=CC(=C1)C)C)","CC1=CN=C(C)C=C1","InChI=1S/C7H9N/c1-6-3-4-7(2)8-5-6/h3-5H,1-2H3","XWKFPIODWVPXLX-UHFFFAOYSA-N","?","25","spectrophotometric","a/thermodynamic","NHE+","basic",6.4
"11124","N2(=C(C1(=CC=C(C)C=C1))CCC2)","CC1C=CC(=CC=1)C1CCCN=1","InChI=1S/C11H13N/c1-9-4-6-10(7-5-9)11-3-2-8-12-11/h4-7H,2-3,8H2,1H3","XQWIWECDDSGMPG-UHFFFAOYSA-N","?","25","potentiometric","b/apparent","?","basic",6.41
"16444","O=[N+]([O-])C=2(C=1(C(=NC(C)=CC=1NCCC[NH+](C)C)C=CC=2))","CC1=CC(NCCCN(C)C)=C2C(=CC=CC2=N1)[N+]([O-])=O","InChI=1S/C15H20N4O2/c1-11-10-13(16-8-5-9-18(2)3)15-12(17-11)6-4-7-14(15)19(20)21/h4,6-7,10H,5,8-9H2,1-3H3,(H,16,17)","UPMLTCJVJYWXJW-UHFFFAOYSA-N","?","25","spectrophotometric","a1/apparent","?","basic",6.41
"15002","P(C1(=NC=CN1))(C2(=NC=CN2))C3(=NC=CN3)","C1=CNC(=N1)P(C1NC=CN=1)C1NC=CN=1","InChI=1S/C9H9N6P/c1-2-11-7(10-1)16(8-12-3-4-13-8)9-14-5-6-15-9/h1-6H,(H,10,11)(H,12,13)(H,14,15)","LCORTBULURHQHJ-UHFFFAOYSA-N","?, ?, ?","18","potentiometric","a3/apparent","H, H, H","basic",6.429999999999999
"14102","N(C(C#C)(C)C)C(C#C)(C)C","CC(C)(C#C)NC(C)(C)C#C","InChI=1S/C10H15N/c1-7-9(3,4)11-10(5,6)8-2/h1-2,11H,3-6H3","IXWOSGPCLPGRMP-UHFFFAOYSA-N","?","25","potentiometric","a1/apparent","?","basic",6.45
"17079","OC2(=CC=C(C(=N)C1(=CC=CC=C1))C=C2)","N=C(C1C=CC=CC=1)C1C=CC(O)=CC=1","InChI=1S/C13H11NO/c14-13(10-4-2-1-3-5-10)11-6-8-12(15)9-7-11/h1-9,14-15H","RPZDWCSUGSQAMO-UHFFFAOYSA-N","?",,"potentiometric","b/apparent","?","basic",6.45
"15525","O(C=1(C=3(C(N=CC=1)=C2(N=CC=C(C2=CC=3)OC))))C","COC1=CC=NC2=C3N=CC=C(OC)C3=CC=C12","InChI=1S/C14H12N2O2/c1-17-11-5-7-15-13-9(11)3-4-10-12(18-2)6-8-16-14(10)13/h3-8H,1-2H3","ZPGVCQYKXIQWTP-UHFFFAOYSA-N","?","25","potentiometric","a/apparent","?","basic",6.45
"15521","N=3(C2(=C1(N=CC=C(C1=C(C)C=C2C(C)=C(C=3)C)C)))","CC1C=C2C(N=CC(C)=C2C)=C2N=CC=C(C)C=12","InChI=1S/C16H16N2/c1-9-5-6-17-16-14(9)10(2)7-13-12(4)11(3)8-18-15(13)16/h5-8H,1-4H3","GQUSYWKLOQSXIA-UHFFFAOYSA-N","?","25","potentiometric","a/apparent","?","basic",6.45
"16810","O=[N+]([O-])C=3(C=1(C(=NC2(=CC=CC=C2(C=1NCCC[NH+](C)C)))C(N(C)C)=CC=3))","CN(C)CCCNC1=C2C(=NC3C=CC=CC=31)C(=CC=C2[N+]([O-])=O)N(C)C","InChI=1S/C20H25N5O2/c1-23(2)13-7-12-21-19-14-8-5-6-9-15(14)22-20-17(24(3)4)11-10-16(18(19)20)25(26)27/h5-6,8-11H,7,12-13H2,1-4H3,(H,21,22)","QPWBTZNSNJXXSU-UHFFFAOYSA-N","?","25","spectrophotometric","a1/apparent","?","basic",6.47
"12731","N2(C(C1(=CC=CC=C1))C2)","C1NC1C1C=CC=CC=1","InChI=1S/C8H9N/c1-2-4-7(5-3-1)8-6-9-8/h1-5,8-9H,6H2","GBIKLFWSUVVUKT-UHFFFAOYSA-N","?","25","potentiometric","a1/apparent","?","basic",6.47
"13322","OC2(=C1(N=C(C)N(C1=C(O)C=C2)C))","CC1=NC2C(=C(O)C=CC=2O)N1C","InChI=1S/C9H10N2O2/c1-5-10-8-6(12)3-4-7(13)9(8)11(5)2/h3-4,12-13H,1-2H3","QVQFRWCSOXDKBA-UHFFFAOYSA-N","?","30","spectrophotometric","a1/apparent","N(1+)-H","basic",6.47
"16748","O(C3(=C(C1(=NC=2(C=NC=CC=2(N1))))C=CC(=C3)OC))C","COC1C=C(C=CC=1C1NC2C=CN=CC=2N=1)OC","InChI=1S/C14H13N3O2/c1-18-9-3-4-10(13(7-9)19-2)14-16-11-5-6-15-8-12(11)17-14/h3-8H,1-2H3,(H,16,17)","JZRYRVREPVLNEP-UHFFFAOYSA-N","?","25","mean from 3","a1/apparent","?","basic",6.49
"16587","O=[N+]([O-])C2(=CC(C(=O)CCN1(CCOCC1))=CC=C2)","[O-][N+](=O)C1C=CC=C(C=1)C(O)=CCN1CCOCC1","InChI=1S/C13H16N2O4/c16-13(4-5-14-6-8-19-9-7-14)11-2-1-3-12(10-11)15(17)18/h1-4,10,16H,5-9H2","SKKIRZMHSBWSMC-UHFFFAOYSA-N","?","25",,"a1/apparent","?","basic",6.5
"15133","O=C(C1(=CC=CC=C1))CCN2(CCOCC2)","OC(=CCN1CCOCC1)C1C=CC=CC=1","InChI=1S/C13H17NO2/c15-13(12-4-2-1-3-5-12)6-7-14-8-10-16-11-9-14/h1-6,15H,7-11H2","DLTRVLQNHXQRNQ-UHFFFAOYSA-N","?","25","potentiometric","a1/thermodynamic","NH(1+)","basic",6.5
"15516","N3(C2(=CC=C(N1(CCCCC1))C=C2))(CCCCC3)","C1CCCCN1C1C=CC(=CC=1)N1CCCCC1","InChI=1S/C16H24N2/c1-3-11-17(12-4-1)15-7-9-16(10-8-15)18-13-5-2-6-14-18/h7-10H,1-6,11-14H2","UWUDSNLALSQANA-UHFFFAOYSA-N","?","25",,"a1/apparent","N-H","basic",6.5
"15458","OC(CN(CCO)CCCCCCCCCCCC)C","CCCCCCCCCCCCN(CCO)CC(C)O","InChI=1S/C17H37NO2/c1-3-4-5-6-7-8-9-10-11-12-13-18(14-15-19)16-17(2)20/h17,19-20H,3-16H2,1-2H3","GKZYRDWRGKJLEO-UHFFFAOYSA-N","?","20","potentiometric","a1/apparent","-NH3%+&","basic",6.5
"13774","[S-]C2(=NC1(=NC=CN=C1C=N2))","SC1N=C2N=CC=NC2=CN=1","InChI=1S/C6H4N4S/c11-6-9-3-4-5(10-6)8-2-1-7-4/h1-3H,(H,8,9,10,11)","DAAQPMSPBHQGQA-UHFFFAOYSA-N","?","20","potentiometric","a/apparent","?","basic",6.52
"14781","ClC1(=C(C=CC(=C1)Cl)C(OCC3(=CC=C(SC2(=CC=CC=C2))C=C3))CN4(C=NC=C4))","ClC1C=C(Cl)C=CC=1C(CN1C=NC=C1)OCC1C=CC(=CC=1)SC1C=CC=CC=1","InChI=1S/C24H20Cl2N2OS/c25-19-8-11-22(23(26)14-19)24(15-28-13-12-27-17-28)29-16-18-6-9-21(10-7-18)30-20-4-2-1-3-5-20/h1-14,17,24H,15-16H2","ZCJYUTQZBAIHBS-UHFFFAOYSA-N","?","28",,"a1/apparent","N(1+)H","basic",6.54
"17822","SCC=1(N=CNC=1)","SCC1=CNC=N1","InChI=1S/C4H6N2S/c7-2-4-1-5-3-6-4/h1,3,7H,2H2,(H,5,6)","CUJKQNHBJRVCET-UHFFFAOYSA-N","?","25","potentiometric","a1/apparent","?","basic",6.54
"10754","N(C1(=CC=CC=C1))C(CC)(C)C","CCC(C)(C)NC1C=CC=CC=1","InChI=1S/C11H17N/c1-4-11(2,3)12-10-8-6-5-7-9-10/h5-9,12H,4H2,1-3H3","GFJVNESVZAIIJL-UHFFFAOYSA-N","?","25","mean from 2","a/apparent","?","basic",6.55
"13824","N=2(C1(=C(C=CC=C1)N(C=2C)C))","CC1=NC2C=CC=CC=2N1C","InChI=1S/C9H10N2/c1-7-10-8-5-3-4-6-9(8)11(7)2/h3-6H,1-2H3","PJQIBTFOXWGAEN-UHFFFAOYSA-N","?",,"potentiometric","a/apparent","?","basic",6.55
"10902","NC1(C(C(N)C(C)C(C1C)N)C)","CC1C(N)C(C)C(N)C(C)C1N","InChI=1S/C9H21N3/c1-4-7(10)5(2)9(12)6(3)8(4)11/h4-9H,10-12H2,1-3H3","IPDXATCBSCSGLA-UHFFFAOYSA-N","?, ?, ?","24.85","potentiometric","a1/apparent","NH3%+&, NH3%+&, NH3%+&","basic",6.569999999999999
"10198","N1(=C(C(=CC=C1)C)C)","CC1=NC=CC=C1C","InChI=1S/C7H9N/c1-6-4-3-5-8-7(6)2/h3-5H,1-2H3","HPYNZHMRTTWQTB-UHFFFAOYSA-N","?","25","spectrophotometric","a/thermodynamic","NHE+","basic",6.57
"16709","S2(C1(=C(C=C(C(=O)[O-])C=C1)C(=C2CN3(C=NC=C3))C))","CC1=C(CN2C=NC=C2)SC2=CC=C(C=C21)C(O)=O","InChI=1S/C14H12N2O2S/c1-9-11-6-10(14(17)18)2-3-12(11)19-13(9)7-16-5-4-15-8-16/h2-6,8H,7H2,1H3,(H,17,18)","FFCLQMGMGYVLJX-UHFFFAOYSA-N","?","25",,"a1/apparent","NH","basic",6.58
"17380","N(NCC)(C)C","CCNN(C)C","InChI=1S/C4H12N2/c1-4-5-6(2)3/h5H,4H2,1-3H3","TWWCBLSUGOSDIY-UHFFFAOYSA-N","?","25","potentiometric","a1/apparent","?","basic",6.58
"15141","O(C2(=CC(C(=N)C1(=CC=CC=C1))=CC=C2))C","COC1=CC(=CC=C1)C(=N)C1C=CC=CC=1","InChI=1S/C14H13NO/c1-16-13-9-5-8-12(10-13)14(15)11-6-3-2-4-7-11/h2-10,15H,1H3","WZVMCERPQSDCRV-UHFFFAOYSA-N","?",,"potentiometric","b/apparent","?","basic",6.59
"14413","N(C1(=CC=CC=C1))(CC)CC","CCN(CC)C1C=CC=CC=1","InChI=1S/C10H15N/c1-3-11(4-2)10-8-6-5-7-9-10/h5-9H,3-4H2,1-2H3","GGSUCNLOZRCGPQ-UHFFFAOYSA-N","?","23","mean from 6","a1/apparent","?","basic",6.6
"15053","ClC2(=CC=C(NC1(=NC(N)=CC(=N1)C))C=C2)","CC1C=C(N)N=C(NC2C=CC(Cl)=CC=2)N=1","InChI=1S/C11H11ClN4/c1-7-6-10(13)16-11(14-7)15-9-4-2-8(12)3-5-9/h2-6H,1H3,(H3,13,14,15,16)","VDSDDDOYBFMUNA-UHFFFAOYSA-N","?","25","spectrophotometric","a/apparent","?","basic",6.6
"15509","N=1(C=3(C(N=C2(C=1C=C(N)C=C2))=CC=C(C=3)N(C)C))","CN(C)C1C=C2N=C3C=C(N)C=CC3=NC2=CC=1","InChI=1S/C14H14N4/c1-18(2)10-4-6-12-14(8-10)17-13-7-9(15)3-5-11(13)16-12/h3-8H,15H2,1-2H3","YUMBQCXEJANOIS-UHFFFAOYSA-N","?","24","potentiometric","a/apparent","?","basic",6.6
"15931","O4(CCN(CC=1(C=3(C(C(C)=C2(C=1C=CC=C2))=CC=CC=3)))CC4)","CC1=C2C=CC=CC2=C(CN2CCOCC2)C2=CC=CC=C21","InChI=1S/C20H21NO/c1-15-16-6-2-4-8-18(16)20(14-21-10-12-22-13-11-21)19-9-5-3-7-17(15)19/h2-9H,10-14H2,1H3","CSRINNLYWLVQQE-UHFFFAOYSA-N","?","20","spectrophotometric","a1/thermodynamic","?","basic",6.6
"13096","S1(CN(C)C(C1)C(=O)[O-])","CN1CSCC1=C(O)O","InChI=1S/C5H9NO2S/c1-6-3-9-2-4(6)5(7)8/h7-8H,2-3H2,1H3","VRAKCJWPVLDUSG-UHFFFAOYSA-N","?","24","potentiometric","a2/apparent","?","basic",6.6
"14015","N=1(N=CC2(=CC=CC=C2(C=1N)))","NC1=NN=CC2=CC=CC=C21","InChI=1S/C8H7N3/c9-8-7-4-2-1-3-6(7)5-10-11-8/h1-5H,(H2,9,11)","WTYSCLHDMXBMKM-UHFFFAOYSA-N","?","20","potentiometric","a/apparent","?","basic",6.6
"15273","O=C(NC1(=C(C=CC=C1C)C))C(N(CCC)CC)CC","CC1C=CC=C(C)C=1/N=C(/O)\C(CC)N(CCC)CC","InChI=1S/C17H28N2O/c1-6-12-19(8-3)15(7-2)17(20)18-16-13(4)10-9-11-14(16)5/h9-11,15H,6-8,12H2,1-5H3,(H,18,20)","VTUSIVBDOCDNHS-UHFFFAOYSA-N","?","25","potentiometric","a1/apparent","?","basic",6.62
"11962","N2(=C1(NCCNC1=CN=C2))","C1CNC2=CN=CN=C2N1","InChI=1S/C6H8N4/c1-2-9-6-5(8-1)3-7-4-10-6/h3-4,8H,1-2H2,(H,7,9,10)","IDAICLIJTRXNER-UHFFFAOYSA-N","?","20","potentiometric","a/apparent","?","basic",6.63
"14104","ClCCN(CCCl)CCCC","CCCCN(CCCl)CCCl","InChI=1S/C8H17Cl2N/c1-2-3-6-11(7-4-9)8-5-10/h2-8H2,1H3","SXPGFJZLDDFUHA-UHFFFAOYSA-N","?","15",,"a/apparent","?","basic",6.63
"15940","O=[N+]([O-])C=2(C1(=C(NCCC[NH+](C)C)C(=C(C)N=C1C=CC=2)C))","CC1N=C2C=CC=C(C2=C(NCCCN(C)C)C=1C)[N+]([O-])=O","InChI=1S/C16H22N4O2/c1-11-12(2)18-13-7-5-8-14(20(21)22)15(13)16(11)17-9-6-10-19(3)4/h5,7-8H,6,9-10H2,1-4H3,(H,17,18)","ZQYXRTWGRYOUBC-UHFFFAOYSA-N","?","25","spectrophotometric","a1/apparent","?","basic",6.64
"17521","N(NC)(C)C","CNN(C)C","InChI=1S/C3H10N2/c1-4-5(2)3/h4H,1-3H3","NIIPNAJXERMYOG-UHFFFAOYSA-N","?","29","mean from 3","a1/apparent","?","basic",6.64
"15167","O=[N+]([O-])C=2(C=1(C(=C[N+](CCN)=CC=1)C=CC=2))","NCC[N+]1C=C2C=CC=C(C2=CC=1)[N+]([O-])=O","InChI=1S/C11H12N3O2/c12-5-7-13-6-4-10-9(8-13)2-1-3-11(10)14(15)16/h1-4,6,8H,5,7,12H2/q+1","MCOOOSJUZBJDCT-UHFFFAOYSA-N","?","25","potentiometric","a1/apparent","N-H","basic",6.65
"10290","O(C1(=CC=NC=C1))C","COC1C=CN=CC=1","InChI=1S/C6H7NO/c1-8-6-2-4-7-5-3-6/h2-5H,1H3","XQABVLBGNWBWIV-UHFFFAOYSA-N","?","23","mean from 4","a1/apparent","?","basic",6.65
"12026","N2(=CC1(=C(CCCC1)C=C2))","C1CCCC2C=CN=CC=21","InChI=1S/C9H11N/c1-2-4-9-7-10-6-5-8(9)3-1/h5-7H,1-4H2","HTMGQIXFZMZZKD-UHFFFAOYSA-N","?","20","potentiometric","a1/apparent","?","basic",6.65
"11043","N2(=CN(CC1(=CC=CC=C1))C=C2)","C(C1C=CC=CC=1)N1C=NC=C1","InChI=1S/C10H10N2/c1-2-4-10(5-3-1)8-12-7-6-11-9-12/h1-7,9H,8H2","KKKDZZRICRFGSD-UHFFFAOYSA-N","?","25","mean from 2","a1/apparent","CH","basic",6.66
"10085","N1(N(CCCC1)C)(C)","CN1CCCCN1C","InChI=1S/C6H14N2/c1-7-5-3-4-6-8(7)2/h3-6H2,1-2H3","LPBMSFIXSFTBPY-UHFFFAOYSA-N","?","25","potentiometric","a1/apparent","?","basic",6.66
"12886","N1(N(CCCCC1)C)(C)","CN1CCCCCN1C","InChI=1S/C7H16N2/c1-8-6-4-3-5-7-9(8)2/h3-7H2,1-2H3","HETZZQBBTGYZHG-UHFFFAOYSA-N","?","25","potentiometric","a1/apparent","?","basic",6.66
"14476","O=C(CCN1(CCOCC1))C","C=C(O)CCN1CCOCC1","InChI=1S/C8H15NO2/c1-8(10)2-3-9-4-6-11-7-5-9/h10H,1-7H2","YOVMQYOJAIAPLS-UHFFFAOYSA-N","?","25","mean from 2","a/apparent","?","basic",6.66
"16815","O=[N+]([O-])C=2(C=1(C(=NC(C)=C(C=1NCCC[NH+](C)C)C)C(C)=CC=2))","CC1=CC=C(C2C1=NC(C)=C(C)C=2NCCCN(C)C)[N+]([O-])=O","InChI=1S/C17H24N4O2/c1-11-7-8-14(21(22)23)15-16(11)19-13(3)12(2)17(15)18-9-6-10-20(4)5/h7-8H,6,9-10H2,1-5H3,(H,18,19)","VRALCVSJHCDKKT-UHFFFAOYSA-N","?","25","spectrophotometric","a1/apparent","?","basic",6.67
"17792","N1(N(CCC1)C)(C)","CN1CCCN1C","InChI=1S/C5H12N2/c1-6-4-3-5-7(6)2/h3-5H2,1-2H3","DKXPLHOKMGMMQM-UHFFFAOYSA-N","?","25","potentiometric","a1/apparent","?","basic",6.67
"16805","FC1(=C(F)C=CC=C1C(C3(=CC=2(N(C(N)=NC=2C=C3)C(C)C)))=CC(=O)NC)","CNC(=O)C=C(C1=CC=CC(F)=C1F)C1=CC2=C(C=C1)N=C(N)N2C(C)C","InChI=1S/C20H20F2N4O/c1-11(2)26-17-9-12(7-8-16(17)25-20(26)23)14(10-18(27)24-3)13-5-4-6-15(21)19(13)22/h4-11H,1-3H3,(H2,23,25)(H,24,27)","MCRNSVWNZDXDIY-UHFFFAOYSA-N","?","25","potentiometric","a1/apparent","?","basic",6.69
"17900","N1(=NC=CC(=C1)N)","NC1=CN=NC=C1","InChI=1S/C4H5N3/c5-4-1-2-6-7-3-4/h1-3H,(H2,5,6)","LUCGBEPEAUHERV-UHFFFAOYSA-N","?","20","potentiometric","a/apparent","?","basic",6.69
"12357","N1(=C(N)C=CC=C1C2(=NC(N)=CC=C2))","NC1C=CC=C(N=1)C1C=CC=C(N)N=1","InChI=1S/C10H10N4/c11-9-5-1-3-7(13-9)8-4-2-6-10(12)14-8/h1-6H,(H2,11,13)(H2,12,14)","YKSWVQYWQSZDPR-UHFFFAOYSA-N","?","20","spectrophotometric","a1/apparent","=NH(+)-","basic",6.7
"12167","N1(=C(C=C(C(C)(C)C)C=C1)C(C)(C)C)","CC(C)(C)C1C=C(C=CN=1)C(C)(C)C","InChI=1S/C13H21N/c1-12(2,3)10-7-8-14-11(9-10)13(4,5)6/h7-9H,1-6H3","LEOBMIVTCWKNCB-UHFFFAOYSA-N","?","25","spectrophotometric","a1/thermodynamic","?","basic",6.7
"15543","O3(CCN(C2(=CC=C(N1(CCCCC1))C=C2))CC3)","C1CN(CCO1)C1C=CC(=CC=1)N1CCCCC1","InChI=1S/C15H22N2O/c1-2-8-16(9-3-1)14-4-6-15(7-5-14)17-10-12-18-13-11-17/h4-7H,1-3,8-13H2","DBDJIVOQTZIVOS-UHFFFAOYSA-N","?","25",,"a1/apparent","N-H","basic",6.7
"15457","OC(CN(CC(O)C)CCCCCCCCCC)CC","CC(O)CN(CC(O)CC)CCCCCCCCCC","InChI=1S/C17H37NO2/c1-4-6-7-8-9-10-11-12-13-18(14-16(3)19)15-17(20)5-2/h16-17,19-20H,4-15H2,1-3H3","WVIKIMVPKFXKAK-UHFFFAOYSA-N","?","20","potentiometric","a1/apparent","-NH3%+&","basic",6.7
"15495","FC4(=C(C(C2(=CC=1(N(C(N)=NC=1C=C2)C3(CCCC3))))=CC(=O)NC)C=CC=C4)","CNC(=O)C=C(C1C=CC=CC=1F)C1=CC2=C(C=C1)N=C(N)N2C1CCCC1","InChI=1S/C22H23FN4O/c1-25-21(28)13-17(16-8-4-5-9-18(16)23)14-10-11-19-20(12-14)27(22(24)26-19)15-6-2-3-7-15/h4-5,8-13,15H,2-3,6-7H2,1H3,(H2,24,26)(H,25,28)","CSOMQWHJMPGAKL-UHFFFAOYSA-N","?","25","potentiometric","a1/apparent","?","basic",6.7
"17824","[S-]C1(=NC=NC=C1)","SC1=CC=NC=N1","InChI=1S/C4H4N2S/c7-4-1-2-5-3-6-4/h1-3H,(H,5,6,7)","MGAXHFMCFLLMNG-UHFFFAOYSA-N","?",,"potentiometric","a/apparent","?","basic",6.7
"11882","ClCCN(CCCl)CCC","CCCN(CCCl)CCCl","InChI=1S/C7H15Cl2N/c1-2-5-10(6-3-8)7-4-9/h2-7H2,1H3","XPOTXXGDCPYFGR-UHFFFAOYSA-N","?","15","potentiometric","a/thermodynamic","?","basic",6.7
"12394","[Br]C=1(C=2(C(C=[N+](C=1)CCN)=CC=CC=2))","NCC[N+]1=CC2=CC=CC=C2C(Br)=C1","InChI=1S/C11H12BrN2/c12-11-8-14(6-5-13)7-9-3-1-2-4-10(9)11/h1-4,7-8H,5-6,13H2/q+1","LYRIHOKLYXSBDL-UHFFFAOYSA-N","?","25","potentiometric","a1/apparent","N-H","basic",6.71
"13367","N(C1(=CC=CC=C1))(C2(CCCC2))C","CN(C1CCCC1)C1C=CC=CC=1","InChI=1S/C12H17N/c1-13(12-9-5-6-10-12)11-7-3-2-4-8-11/h2-4,7-8,12H,5-6,9-10H2,1H3","ZPWSDUMJLDOMDQ-UHFFFAOYSA-N","?",,,"a/apparent","?","basic",6.71
"16443","O=[N+]([O-])C2(=C(C1(=NC=CC(=C1C=C2)NCCC[NH+](C)C))C)","CC1C(=CC=C2C=1N=CC=C2NCCCN(C)C)[N+]([O-])=O","InChI=1S/C15H20N4O2/c1-11-14(19(20)21)6-5-12-13(7-9-17-15(11)12)16-8-4-10-18(2)3/h5-7,9H,4,8,10H2,1-3H3,(H,16,17)","JTRVDVSWDCHNBZ-UHFFFAOYSA-N","?","25","spectrophotometric","a1/apparent","?","basic",6.71
"17554","S(C(=N)C)C","CSC(C)=N","InChI=1S/C3H7NS/c1-3(4)5-2/h4H,1-2H3","YYKXMTXALJYVCN-UHFFFAOYSA-N","?","25","potentiometric","a1/apparent","?","basic",6.71
"14293","O=C(N)C(N)CC=1(N=CNC=1)","NC(O)C(=N)CC1=CNC=N1","InChI=1S/C6H10N4O/c7-5(6(8)11)1-4-2-9-3-10-4/h2-3,6-7,11H,1,8H2,(H,9,10)","PFARGMSYQZHEMG-UHFFFAOYSA-N","?, ?",,"potentiometric","a2/apparent","?, ?","basic",6.71
"10649","[Br]C1(=C(N=CN(C)C)C=CC=C1)","CN(C)C=NC1C=CC=CC=1Br","InChI=1S/C9H11BrN2/c1-12(2)7-11-9-6-4-3-5-8(9)10/h3-7H,1-2H3","QXYAKYXLQMQHRD-UHFFFAOYSA-N","?","25","mean from 2","a1/apparent","?","basic",6.71
"16680","N=2(C1(=C4(C(=CC=C1C=C3(C=2C=C(N)C=C3))C=CC=C4)))","NC1=CC2=NC3=C4C=CC=CC4=CC=C3C=C2C=C1","InChI=1S/C17H12N2/c18-14-8-7-12-9-13-6-5-11-3-1-2-4-15(11)17(13)19-16(12)10-14/h1-10H,18H2","UKBHGLPFJLCZIL-UHFFFAOYSA-N","?","20","spectrophotometric","a/apparent","?","basic",6.72
"12552","O2(CCN(C1(=NC(=NC(=C1)N)N))CC2)","NC1N=C(C=C(N)N=1)N1CCOCC1","InChI=1S/C8H13N5O/c9-6-5-7(12-8(10)11-6)13-1-3-14-4-2-13/h5H,1-4H2,(H4,9,10,11,12)","DFSFIKNJVGWSMU-UHFFFAOYSA-N","?","20",,"a1/thermodynamic","?","basic",6.73
"16486","O=C([O-])C(NC(=O)C([NH3+])CC=1(N=CNC=1))CC=2(N=CNC=2)","N=C(CC1=CNC=N1)C(O)NC(CC1=CNC=N1)=C(O)O","InChI=1S/C12H16N6O3/c13-9(1-7-3-14-5-16-7)11(19)18-10(12(20)21)2-8-4-15-6-17-8/h3-6,11,13,18-21H,1-2H2,(H,14,16)(H,15,17)","BLZSXQJXNOHNHY-UHFFFAOYSA-N","?, ?, ?","25","potentiometric","a3/apparent","?, ?, ?","basic",6.7333333333333325
"13754","N2(=C1(NCCNC1=C(C)N=C2))","CC1N=CN=C2NCCNC2=1","InChI=1S/C7H10N4/c1-5-6-7(11-4-10-5)9-3-2-8-6/h4,8H,2-3H2,1H3,(H,9,10,11)","NAJUDRRVPFDWRJ-UHFFFAOYSA-N","?","20","potentiometric","a/apparent","?","basic",6.74
"17004","O2(CCN(CCCN1(CCOCC1))CC2)","C(CCN1CCOCC1)N1CCOCC1","InChI=1S/C11H22N2O2/c1(2-12-4-8-14-9-5-12)3-13-6-10-15-11-7-13/h1-11H2","PENRYFPQHOTBJV-UHFFFAOYSA-N","?, ?","25","potentiometric","a2/apparent","?, ?","basic",6.75
"16158","OC1(=C(C(=CC(=C1)O)C)C(=N)C2(=CC=CC=C2))","CC1=CC(O)=CC(O)=C1C(=N)C1C=CC=CC=1","InChI=1S/C14H13NO2/c1-9-7-11(16)8-12(17)13(9)14(15)10-5-3-2-4-6-10/h2-8,15-17H,1H3","CDNZKBYJWGGIRW-UHFFFAOYSA-N","?",,"potentiometric","b/apparent","?","basic",6.75
"16365","S(=O)(=O)(NCCCN1(CCOCC1))C2(=C(OC)C(OC)=C(OC)C=C2)","COC1C(OC)=C(C=CC=1OC)S(=O)(=O)NCCCN1CCOCC1","InChI=1S/C16H26N2O6S/c1-21-13-5-6-14(16(23-3)15(13)22-2)25(19,20)17-7-4-8-18-9-11-24-12-10-18/h5-6,17H,4,7-12H2,1-3H3","JKHDBQAOCNZGIK-UHFFFAOYSA-N","?","20","potentiometric","a1/thermodynamic","amino","basic",6.76
"15553","N1(C3(=CC=C(CCC=2(C=C(CC1)C=CC=2))C=C3))(C)","CN1CCC2=CC(CCC3C=CC1=CC=3)=CC=C2","InChI=1S/C17H19N/c1-18-12-11-16-4-2-3-15(13-16)6-5-14-7-9-17(18)10-8-14/h2-4,7-10,13H,5-6,11-12H2,1H3","MRXNTQWFXJHRJE-UHFFFAOYSA-N","?","25","spectrophotometric","b1/apparent","?","basic",6.76