"Molecule name","OriginalSmiles","Canonical_QSARr","InChI_Code_QSARr","InChI Key_QSARr","Salt_Solvent (Concatenate)","temp","method","type","group","basicOrAcidic","pKa"
"16676","O=C(NCCCCCCCCCCN(C)C)C=N[O-]","CN(C)CCCCCCCCCCNC(=O)CN=O","InChI=1S/C14H29N3O2/c1-17(2)12-10-8-6-4-3-5-7-9-11-15-14(18)13-16-19/h3-13H2,1-2H3,(H,15,18)","KQILMNNPFLSVIB-UHFFFAOYSA-N","?","25","potentiometric","a2/apparent","?","basic",10.57
"10250","O=C([O-])C1(NCCC1)","OC(O)C1CCCN=1","InChI=1S/C5H9NO2/c7-5(8)4-2-1-3-6-4/h5,7-8H,1-3H2","LGYZHDDCGRXAPL-UHFFFAOYSA-N","?, ?","23","mean from 2","a/apparent","?, COOH","basic",10.585
"13392","O=C([O-])C1(N2(CC(C=C)C(C1)CC2))","C=CC1CN2CCC1CC2=C(O)O","InChI=1S/C10H15NO2/c1-2-7-6-11-4-3-8(7)5-9(11)10(12)13/h2,7-8,12-13H,1,3-6H2","JZJRCSGZICQJIR-UHFFFAOYSA-N","?",,"potentiometric","a1/apparent","?","basic",10.6
"15634","O=C([O-])CCNCCCCCCCCCCCC","CCCCCCCCCCCCNCC=C(O)O","InChI=1S/C15H31NO2/c1-2-3-4-5-6-7-8-9-10-11-13-16-14-12-15(17)18/h12,16-18H,2-11,13-14H2,1H3","PQQNLDVXHLXASC-UHFFFAOYSA-N","?","30","potentiometric","a2/apparent","?","basic",10.6
"16879","NCCCCCCCCCCCCCCCCCCCCCC","CCCCCCCCCCCCCCCCCCCCCCN","InChI=1S/C22H47N/c1-2-3-4-5-6-7-8-9-10-11-12-13-14-15-16-17-18-19-20-21-22-23/h2-23H2,1H3","VPNOHCYAOXWMAR-UHFFFAOYSA-N","?","25","conductometric","b/apparent","?","basic",10.6
"10209","N1(C(CCC1)C)(CC)","CCN1CCCC1C","InChI=1S/C7H15N/c1-3-8-6-4-5-7(8)2/h7H,3-6H2,1-2H3","JKNXMPSMAZUQMJ-UHFFFAOYSA-N","?","27","potentiometric","a/apparent","NH+","basic",10.6
"15190","NCCCCCCCCCCCCCCC","CCCCCCCCCCCCCCCN","InChI=1S/C15H33N/c1-2-3-4-5-6-7-8-9-10-11-12-13-14-15-16/h2-16H2,1H3","JPZYXGPCHFZBHO-UHFFFAOYSA-N","?","25","conductometric","b/apparent","?","basic",10.61
"14600","NCCCCCCCCCCCCCC","CCCCCCCCCCCCCCN","InChI=1S/C14H31N/c1-2-3-4-5-6-7-8-9-10-11-12-13-14-15/h2-15H2,1H3","PLZVEHJLHYMBBY-UHFFFAOYSA-N","?","25","conductometric","b/apparent","?","basic",10.62
"13203","NCCCCCCCCCCCC","CCCCCCCCCCCCN","InChI=1S/C12H27N/c1-2-3-4-5-6-7-8-9-10-11-12-13/h2-13H2,1H3","JRBPAEWTRLWTQC-UHFFFAOYSA-N","?","25","conductometric","b/apparent","?","basic",10.63
"14090","NCCCCCCCCCC","CCCCCCCCCCN","InChI=1S/C10H23N/c1-2-3-4-5-6-7-8-9-10-11/h2-11H2,1H3","MHZGKXUYDGKKIU-UHFFFAOYSA-N","?","25","conductometric","a1/apparent","?","basic",10.64
"13679","OC(CN1(C(CCCC1C)C))(C)C","CC(C)(O)CN1C(C)CCCC1C","InChI=1S/C11H23NO/c1-9-6-5-7-10(2)12(9)8-11(3,4)13/h9-10,13H,5-8H2,1-4H3","LZHFZYWXIKMMBM-UHFFFAOYSA-N","?","22","potentiometric","b/apparent","?","basic",10.65
"11645","N1(C(CCC1)C)(CCCC)","CCCCN1CCCC1C","InChI=1S/C9H19N/c1-3-4-7-10-8-5-6-9(10)2/h9H,3-8H2,1-2H3","MISVVRDOUNLNJJ-UHFFFAOYSA-N","?","27","potentiometric","a/apparent","NH+","basic",10.65
"10205","N1(CCCCC1)(CC)","CCN1CCCCC1","InChI=1S/C7H15N/c1-2-8-6-4-3-5-7-8/h2-7H2,1H3","HTLZVHNRZJPSMI-UHFFFAOYSA-N","?","23","mean from 2","b1/apparent","NH(1+)","basic",10.68
"14412","N1(C(CCCC1)C)(CCCC)","CCCCN1CCCCC1C","InChI=1S/C10H21N/c1-3-4-8-11-9-6-5-7-10(11)2/h10H,3-9H2,1-2H3","PHLTYBSRSKCOOU-UHFFFAOYSA-N","?","26","potentiometric","a/apparent","NH+","basic",10.7
"14290","O=C([O-])C(N)CC1(=N[N-]C=N1)","N=C(CC1NN=CN=1)C(O)O","InChI=1S/C5H8N4O2/c6-3(5(10)11)1-4-7-2-8-9-4/h2,5-6,10-11H,1H2,(H,7,8,9)","YOQUEJWUXBAZNR-UHFFFAOYSA-N","?",,,"a3/apparent","?","basic",10.7
"15441","N=C(C1(=CC=C(N(C)C)C=C1))C2(=CC=C(N(C)C)C=C2)","CN(C)C1C=CC(=CC=1)C(=N)C1C=CC(=CC=1)N(C)C","InChI=1S/C17H21N3/c1-19(2)15-9-5-13(6-10-15)17(18)14-7-11-16(12-8-14)20(3)4/h5-12,18H,1-4H3","JPIYZTWMUGTEHX-UHFFFAOYSA-N","?","25",,"b/apparent","NH","basic",10.71
"16543","O=[N+]([O-])C=1(C=3(C(C([O-])=C(C=1)CN2(CCCCC2))=CC=CC=3))","[O-][N+](=O)C1C=C(CN2CCCCC2)C(O)=C2C=CC=CC2=1","InChI=1S/C16H18N2O3/c19-16-12(11-17-8-4-1-5-9-17)10-15(18(20)21)13-6-2-3-7-14(13)16/h2-3,6-7,10,19H,1,4-5,8-9,11H2","JLRRLFHQULWKLG-UHFFFAOYSA-N","?","25","spectrophotometric","a2/apparent","R2NH","basic",10.73
"15196","O=C([O-])CCC#CC#CCCCCCCN","NCCCCCCC#CC#CCC=C(O)O","InChI=1S/C13H19NO2/c14-12-10-8-6-4-2-1-3-5-7-9-11-13(15)16/h11,15-16H,2,4,6,8-10,12,14H2","SLAGTTQWSMEAPV-UHFFFAOYSA-N","?","20","mean from 2","b1/apparent","?","basic",10.74
"10463","O=C([O-])C(NC)(C)C","CNC(C)(C)C(O)=O","InChI=1S/C5H11NO2/c1-5(2,6-3)4(7)8/h6H,1-3H3,(H,7,8)","DLAMVQGYEVKIRE-UHFFFAOYSA-N","?","24.9","spectrophotometric","a1/apparent","N-H","basic",10.75
"12660","O=C([O-])CCCCCN","NCCCCC=C(O)O","InChI=1S/C6H13NO2/c7-5-3-1-2-4-6(8)9/h4,8-9H,1-3,5,7H2","MPBGGRBFOSYISD-UHFFFAOYSA-N","?","24","mean from 2","a2/apparent","NH2","basic",10.76
"12633","N(C(CC)C)CC(C)C","CC(C)CNC(C)CC","InChI=1S/C8H19N/c1-5-8(4)9-6-7(2)3/h7-9H,5-6H2,1-4H3","DVFVBAPHBZWJFX-UHFFFAOYSA-N","?",,,"b/apparent","?","basic",10.77
"17682","N(CC)(CC)CC","CCN(CC)CC","InChI=1S/C6H15N/c1-4-7(5-2)6-3/h4-6H2,1-3H3","ZMANZCXQSJIPKH-UHFFFAOYSA-N","?","23","mean from 13","a1/apparent","?","basic",10.78
"14935","S(=O)(=O)([N-]CCC(=N)N)C1(=CC=C(C)C=C1)","CC1=CC=C(C=C1)S(=O)(=O)NCCC(N)=N","InChI=1S/C10H15N3O2S/c1-8-2-4-9(5-3-8)16(14,15)13-7-6-10(11)12/h2-5,13H,6-7H2,1H3,(H3,11,12)","XINKDJFSJHJPAN-UHFFFAOYSA-N","?","24.9","potentiometric","a2/apparent","C(=NH)NH2","basic",10.8
"13205","N(CCCC)(CCCC)CCCC","CCCCN(CCCC)CCCC","InChI=1S/C12H27N/c1-4-7-10-13(11-8-5-2)12-9-6-3/h4-12H2,1-3H3","IMFACGCPASFAPR-UHFFFAOYSA-N","?","24","mean from 3","a1/apparent","NH3(1+)","basic",10.8
"17444","[Se-]CCN(C)C","CN(C)CC[Se-]","InChI=1S/C4H11NSe/c1-5(2)3-4-6/h6H,3-4H2,1-2H3/p-1","DIIOWUSRPSUBTN-UHFFFAOYSA-M","?","22","potentiometric","a2/apparent","?","basic",10.81
"12638","NC(CC(C)(C)C)(C)C","CC(C)(C)CC(C)(C)N","InChI=1S/C8H19N/c1-7(2,3)6-8(4,5)9/h6,9H2,1-5H3","QIJIUJYANDSEKG-UHFFFAOYSA-N","?","20","potentiometric","a/thermodynamic","?","basic",10.84
"11175","O=C([O-])C1(=CCC2(N(C1CC2)C))","CN1C2CCC1CC=C2C(O)=O","InChI=1S/C9H13NO2/c1-10-6-2-4-7(9(11)12)8(10)5-3-6/h4,6,8H,2-3,5H2,1H3,(H,11,12)","HZGRVVUQEIBCMS-UHFFFAOYSA-N","?","16",,"b/apparent","?","basic",10.85
"17421","NC(CC)(C)C","CCC(C)(C)N","InChI=1S/C5H13N/c1-4-5(2,3)6/h4,6H2,1-3H3","GELMWIVBBPAMIO-UHFFFAOYSA-N","?","18","mean from 2","a/apparent","?","basic",10.89
"17698","[S-]CCNCCC","CCCNCCS","InChI=1S/C5H13NS/c1-2-3-6-4-5-7/h6-7H,2-5H2,1H3","RVHUIQSWHPZCCP-UHFFFAOYSA-N","?","25","potentiometric","a2/apparent","NH3(1+)","basic",10.9
"17849","N1(CC(CCC1)C)","CC1CNCCC1","InChI=1S/C6H13N/c1-6-3-2-4-7-5-6/h6-7H,2-5H2,1H3","JEGMWWXJUXDNJN-UHFFFAOYSA-N","?","25",,"a/apparent","NH+&2%","basic",10.92
"12634","N(C(CC)C)C(CC)C","CC(CC)NC(C)CC","InChI=1S/C8H19N/c1-5-7(3)9-8(4)6-2/h7-9H,5-6H2,1-4H3","OBYVIBDTOCAXSN-UHFFFAOYSA-N","?","25",,"b/apparent","?","basic",10.94
"10767","[Si](CNC1(CCCCC1))(C)(C)C","C[Si](C)(C)CNC1CCCCC1","InChI=1S/C10H23NSi/c1-12(2,3)9-11-10-7-5-4-6-8-10/h10-11H,4-9H2,1-3H3","NVVGMNZEOWJLGX-UHFFFAOYSA-N","?","25","potentiometric","b/apparent","?","basic",10.96
"10207","N1(CCCCCC1)(C)","CN1CCCCCC1","InChI=1S/C7H15N/c1-8-6-4-2-3-5-7-8/h2-7H2,1H3","ZKUKXSWKWGHYKJ-UHFFFAOYSA-N","?","25",,"a1/apparent","?","basic",10.96
"10423","NC(CCCCC)C","CCCCCC(C)N","InChI=1S/C7H17N/c1-3-4-5-6-7(2)8/h7H,3-6,8H2,1-2H3","VSRBKQFNFZQRBM-UHFFFAOYSA-N","?, ?","19","potentiometric","a/apparent","?, ?","basic",10.975000000000001
"14889","O=[N+]([O-])C1(=CC(=C([O-])C=C1)CN(CC)CC)","CCN(CC1C=C(C=CC=1O)[N+]([O-])=O)CC","InChI=1S/C11H16N2O3/c1-3-12(4-2)8-9-7-10(13(15)16)5-6-11(9)14/h5-7,14H,3-4,8H2,1-2H3","DFAWSOMDNOMEQL-UHFFFAOYSA-N","?","25","spectrophotometric","a2/apparent","R2NH","basic",10.99
"12635","N(C(CCCCC)C)C","CCCCCC(C)NC","InChI=1S/C8H19N/c1-4-5-6-7-8(2)9-3/h8-9H,4-7H2,1-3H3","BGWFQRDYRSCOCO-UHFFFAOYSA-N","?","17","potentiometric","a/thermodynamic","?","basic",10.99
"16787","N(CCCCCCCCCCCCC)CCCCCCCCCCCCC","CCCCCCCCCCCCCNCCCCCCCCCCCCC","InChI=1S/C26H55N/c1-3-5-7-9-11-13-15-17-19-21-23-25-27-26-24-22-20-18-16-14-12-10-8-6-4-2/h27H,3-26H2,1-2H3","PZFYOFFTIYJCEW-UHFFFAOYSA-N","?","25","conductometric","b/apparent","?","basic",11.0
"10426","N(C(CC)C)C(C)C","CC(C)NC(C)CC","InChI=1S/C7H17N/c1-5-7(4)8-6(2)3/h6-8H,5H2,1-4H3","JYOCKIVAXFOJOK-UHFFFAOYSA-N","?","25",,"b/apparent","?","basic",11.0
"14950","N=C1(C3(=C(N(C)C2(=C1C=CC=C2))C=CC=C3))","CN1C2C=CC=CC=2C(=N)C2C=CC=CC1=2","InChI=1S/C14H12N2/c1-16-12-8-4-2-6-10(12)14(15)11-7-3-5-9-13(11)16/h2-9,15H,1H3","SQFZLHHJWJODCA-UHFFFAOYSA-N","?","25",,"a/apparent","?","basic",11.01
"17679","N(CCC)CCC","CCCNCCC","InChI=1S/C6H15N/c1-3-5-7-6-4-2/h7H,3-6H2,1-2H3","WEHWNAOGRSTTBQ-UHFFFAOYSA-N","?","25","mean from 2","a1/apparent","NH3(1+)","basic",11.02
"14725","[O-]C1(=NC(=NC(=C1CCCC)C)NCC)","CC1=NC(NCC)=NC(O)=C1CCCC","InChI=1S/C11H19N3O/c1-4-6-7-9-8(3)13-11(12-5-2)14-10(9)15/h4-7H2,1-3H3,(H2,12,13,14,15)","BBXXLROWFHWFQY-UHFFFAOYSA-N","?","24","mean from 2","a2/apparent","?","basic",11.04
"17545","N(CC)CC","CCNCC","InChI=1S/C4H11N/c1-3-5-4-2/h5H,3-4H2,1-2H3","HPNMFZURTQLUMO-UHFFFAOYSA-N","?","25","mean from 11","a1/apparent","?","basic",11.05
"17890","[O-]C1(=CC=NC=C1)","OC1C=CN=CC=1","InChI=1S/C5H5NO/c7-5-1-3-6-4-2-5/h1-4H,(H,6,7)","GCNTZFIIOFTKIY-UHFFFAOYSA-N","?","20","potentiometric","a/apparent","?","basic",11.09
"10433","[Si](CNCC)(C)(C)C","CCNC[Si](C)(C)C","InChI=1S/C6H17NSi/c1-5-7-6-8(2,3)4/h7H,5-6H2,1-4H3","JPPNPJJKGOYLBH-UHFFFAOYSA-N","?","25","mean from 2","a1/apparent","?","basic",11.11
"12032","N12(C(CCC1C)CCC2C)","CC1CCC2CCC(C)N12","InChI=1S/C9H17N/c1-7-3-5-9-6-4-8(2)10(7)9/h7-9H,3-6H2,1-2H3","KNLORGMOTMPXIN-UHFFFAOYSA-N","?, ?, ?","25","potentiometric","a1/apparent","NH(1+), NH(1+), NH(1+)","basic",11.149999999999999
"10758","N(C(CC)(C)C)C1(CCCCC1)","CCC(C)(C)NC1CCCCC1","InChI=1S/C11H23N/c1-4-11(2,3)12-10-8-6-5-7-9-10/h10,12H,4-9H2,1-3H3","ALCVZHFXQLYKQM-UHFFFAOYSA-N","?","20","potentiometric","a/thermodynamic","?","basic",11.2
"10210","N1(C(C)C)(CCCC1)","CC(C)N1CCCC1","InChI=1S/C7H15N/c1-7(2)8-5-3-4-6-8/h7H,3-6H2,1-2H3","YQOPNAOQGQSUHF-UHFFFAOYSA-N","?","25",,"a1/apparent","?","basic",11.22
"13009","N1(C(CCCC1C)(C)C)","CC1CCCC(C)(C)N1","InChI=1S/C8H17N/c1-7-5-4-6-8(2,3)9-7/h7,9H,4-6H2,1-3H3","QARRCHMPOZWNED-UHFFFAOYSA-N","?","30","potentiometric","a/apparent","NH2+","basic",11.27
"12631","N(CCCC)CCCC","CCCCNCCCC","InChI=1S/C8H19N/c1-3-5-7-9-8-6-4-2/h9H,3-8H2,1-2H3","JQVDAXLFBXTEQA-UHFFFAOYSA-N","?","24","mean from 5","a1/apparent","NH3(1+)","basic",11.29
"17555","[Se-]CCCN","NCCC[Se-]","InChI=1S/C3H9NSe/c4-2-1-3-5/h5H,1-4H2/p-1","GBWLSWUOPMNOPN-UHFFFAOYSA-M","?","22","potentiometric","a2/apparent","?","basic",11.3
"12735","N12(C(CC(CC1)CC2)C)","CC1CC2CCN1CC2","InChI=1S/C8H15N/c1-7-6-8-2-4-9(7)5-3-8/h7-8H,2-6H2,1H3","VDWODSPSMJMZQI-UHFFFAOYSA-N","?","25",,"a1/apparent","?","basic",11.33
"10211","N1(C(=CCCC1)C)(C)","CC1=CCCCN1C","InChI=1S/C7H13N/c1-7-5-3-4-6-8(7)2/h5H,3-4,6H2,1-2H3","UESXQASBXUNZTI-UHFFFAOYSA-N","?","25.5","potentiometric","a/apparent","NH+","basic",11.42
"16283","S(=O)(=O)(N(CCC(=N)N)C)C1(=CC=C(C)C=C1)","CC1C=CC(=CC=1)S(=O)(=O)N(C)CCC(N)=N","InChI=1S/C11H17N3O2S/c1-9-3-5-10(6-4-9)17(15,16)14(2)8-7-11(12)13/h3-6H,7-8H2,1-2H3,(H3,12,13)","DUAPFHSGKCZYGV-UHFFFAOYSA-N","?","24.9","potentiometric","a1/apparent","C(=NH)NH2","basic",11.5
"13017","N1(C(=CCCC1)C)(CC)","CCN1CCCC=C1C","InChI=1S/C8H15N/c1-3-9-7-5-4-6-8(9)2/h6H,3-5,7H2,1-2H3","HFDYMWORRGGBSZ-UHFFFAOYSA-N","?","25","potentiometric","a/apparent","NH+","basic",11.57
"13945","OC2(C1(N(C(C)=CC1CC2)C))","CC1=CC2CCC(O)C2N1C","InChI=1S/C9H15NO/c1-6-5-7-3-4-8(11)9(7)10(6)2/h5,7-9,11H,3-4H2,1-2H3","AGCUHXCRQJORRE-UHFFFAOYSA-N","?","21",,"a/apparent","NH%+&","basic",11.7
"14914","ClC1(=C(Cl)C=C(Cl)C(=C1CN(CC)CC)[O-])","CCN(CC1=C(O)C(Cl)=CC(Cl)=C1Cl)CC","InChI=1S/C11H14Cl3NO/c1-3-15(4-2)6-7-10(14)8(12)5-9(13)11(7)16/h5,16H,3-4,6H2,1-2H3","WYBXHLUNMJZPIY-UHFFFAOYSA-N","?","25","spectrophotometric","a2/apparent","R2NH","basic",11.76
"14835","S(=O)(=O)([N-]CCN1(CCNCCNCCNCC1))C=3(C=2(C(=C(N(C)C)C=CC=2)C=CC=3))","CN(C)C1C=CC=C2C(=CC=CC2=1)S(=O)(=O)NCCN1CCNCCNCCNCC1","InChI=1S/C22H36N6O2S/c1-27(2)21-7-3-6-20-19(21)5-4-8-22(20)31(29,30)26-15-18-28-16-13-24-11-9-23-10-12-25-14-17-28/h3-8,23-26H,9-18H2,1-2H3","GUXIXDTWLYMLOU-UHFFFAOYSA-N","?","25","potentiometric","a1/apparent","?","basic",11.8
"10208","N1(C(=CCC1)C)(CC)","CCN1CCC=C1C","InChI=1S/C7H13N/c1-3-8-6-4-5-7(8)2/h5H,3-4,6H2,1-2H3","MOEZDHDBWWXTTG-UHFFFAOYSA-N","?","27","potentiometric","a/apparent","NH+","basic",11.88
"17860","N1(C(=CCC1)C)(C)","CC1=CCCN1C","InChI=1S/C6H11N/c1-6-4-3-5-7(6)2/h4H,3,5H2,1-2H3","MFGQUMAXNNHCNG-UHFFFAOYSA-N","?","25","potentiometric","a/apparent","NH+","basic",11.94
"15065","N2(=C(C=C1(NCC(C1)(C)C))CC(C2(C)C)C)","CC1(C)CN=C(C1)CC1CC(C)C(C)(C)N=1","InChI=1S/C14H24N2/c1-10-6-11(16-14(10,4)5)7-12-8-13(2,3)9-15-12/h10H,6-9H2,1-5H3","LEWQFTRVWAFBFL-UHFFFAOYSA-N","?",,,"a/apparent","?","basic",12.1
"11049","N=C1(C2(=C(N(C)C=C1)C=CC=C2))","CN1C=CC(=N)C2C=CC=CC1=2","InChI=1S/C10H10N2/c1-12-7-6-9(11)8-4-2-3-5-10(8)12/h2-7,11H,1H3","AZHUOPNKXMFIAA-UHFFFAOYSA-N","?","21","potentiometric","a/apparent","?","basic",12.4
"10095","N1(=C(NCCCC1)C)","CC1NCCCCN=1","InChI=1S/C6H12N2/c1-6-7-4-2-3-5-8-6/h2-5H2,1H3,(H,7,8)","YSMWZGUYANZCOM-UHFFFAOYSA-N","?",,"potentiometric","a/apparent","?","basic",12.7
"10147","[O-]C1(=NN=C([O-])C=C1)","OC1C=CC(O)=NN=1","InChI=1S/C4H4N2O2/c7-3-1-2-4(8)6-5-3/h1-2H,(H,5,7)(H,6,8)","BGRDGMRNKXEXQD-UHFFFAOYSA-N","?","20","potentiometric","a3/apparent","?","basic",13.0
"10325","[O-]C=1(N=C(N)N(C=1)C)","CN1C=C(O)N=C1N","InChI=1S/C4H7N3O/c1-7-2-3(8)6-4(7)5/h2,8H,1H3,(H2,5,6)","BTXYOFGSUFEOLA-UHFFFAOYSA-N","?","22","spectrophotometric","a1/apparent","?","basic",13.4
"12702","N(=C(N(C)C)N(C)C)C","CN=C(N(C)C)N(C)C","InChI=1S/C6H15N3/c1-7-6(8(2)3)9(4)5/h1-5H3","ISNICOKBNZOJQG-UHFFFAOYSA-N","?","25","potentiometric","a/apparent","?","basic",13.8
"10570","O=C(C1(=C(C=C(C)C=C1C)C))C","CC1C=C(C)C=C(C)C=1C(=C)O","InChI=1S/C11H14O/c1-7-5-8(2)11(10(4)12)9(3)6-7/h5-6,12H,4H2,1-3H3","NFZHCZLKXDNPEI-UHFFFAOYSA-N","?","25",,"a1/apparent","H","basic",17.61
"17234","O=C(C)C","CC(=C)O","InChI=1S/C3H6O/c1-3(2)4/h4H,1H2,2H3","NARVIWMVBMUEOG-UHFFFAOYSA-N","?","25","mean from 2","a1/thermodynamic","?","basic",19.13