"Molecule name","OriginalSmiles","Canonical_QSARr","InChI_Code_QSARr","InChI Key_QSARr","Salt_Solvent (Concatenate)","temp","method","type","group","basicOrAcidic","pKa"
"12641","[Si](CNC(C)C)(C)(C)C","CC(C)NC[Si](C)(C)C","InChI=1S/C7H19NSi/c1-7(2)8-6-9(3,4)5/h7-8H,6H2,1-5H3","BAHPBZUWESTFBG-UHFFFAOYSA-N","?",,"potentiometric","b/apparent","?","basic",10.8
"17559","[S-]CCNC","CNCCS","InChI=1S/C3H9NS/c1-4-2-3-5/h4-5H,2-3H2,1H3","NZSNWIOVGALACV-UHFFFAOYSA-N","?","25","potentiometric","a2/apparent","NH3(1+)","basic",10.81
"13923","[S-]C1(=NC=CC=2(C1=CC=CC=2))","SC1N=CC=C2C=CC=CC2=1","InChI=1S/C9H7NS/c11-9-8-4-2-1-3-7(8)5-6-10-9/h1-6H,(H,10,11)","IOYIDSMWPLNHRC-UHFFFAOYSA-N","?","20","spectrophotometric","a2/apparent","?","basic",10.82
"12637","NC(CCCCC)(C)C","CCCCCC(C)(C)N","InChI=1S/C8H19N/c1-4-5-6-7-8(2,3)9/h4-7,9H2,1-3H3","XGDOCEUIQYYJDC-UHFFFAOYSA-N","?","17","mean from 2","a/apparent","?","basic",10.83
"14741","NCC","CCN","InChI=1S/C2H7N/c1-2-3/h2-3H2,1H3","QUSNBJAOOMFDIB-UHFFFAOYSA-N","?","24","mean from 10","a1/apparent","NH3+","basic",10.84
"14999","[O-]C=2(C(C1(=NCCN1))=CC3(=CC=CC=C3(C=2)))","OC1=CC2C=CC=CC=2C=C1C1NCCN=1","InChI=1S/C13H12N2O/c16-12-8-10-4-2-1-3-9(10)7-11(12)13-14-5-6-15-13/h1-4,7-8,16H,5-6H2,(H,14,15)","FLXNNWWFGVHTDN-UHFFFAOYSA-N","?","20","mean from 2","a1/apparent","?","basic",10.85
"17556","[Se-]C(CN)C","CC([Se-])CN","InChI=1S/C3H9NSe/c1-3(5)2-4/h3,5H,2,4H2,1H3/p-1","JUELHOGPBBVZDV-UHFFFAOYSA-M","?","22","potentiometric","a2/apparent","?","basic",10.85
"12054","OCC1(N2(CCC(C1)CC2))","OCC1CC2CCN1CC2","InChI=1S/C8H15NO/c10-6-8-5-7-1-3-9(8)4-2-7/h7-8,10H,1-6H2","YUZMBZAYRWUWCN-UHFFFAOYSA-N","?","25",,"a1/apparent","?","basic",10.85
"10425","NC(CC)(CC)CC","CCC(N)(CC)CC","InChI=1S/C7H17N/c1-4-7(8,5-2)6-3/h4-6,8H2,1-3H3","JLEIRAYWBMNMKU-UHFFFAOYSA-N","?","18","mean from 2","a/apparent","?","basic",10.87
"12053","OCC2(C1(N(CCC1)CC2))","OCC1CCN2CCCC21","InChI=1S/C8H15NO/c10-6-7-3-5-9-4-1-2-8(7)9/h7-8,10H,1-6H2","LOFDEIYZIAVXHE-UHFFFAOYSA-N","?","25.5","potentiometric","a/apparent","NH+","basic",10.87
"17264","[Se-]CCN","NCC[Se-]","InChI=1S/C2H7NSe/c3-1-2-4/h4H,1-3H2/p-1","KBFHKFAUJGEUJT-UHFFFAOYSA-M","?","20","mean from 2","a2/apparent","?","basic",10.89
"17851","N1(CCC(C)CC1)","CC1CCNCC1","InChI=1S/C6H13N/c1-6-2-4-7-5-3-6/h6-7H,2-5H2,1H3","UZOFELREXGAFOI-UHFFFAOYSA-N","?","25",,"a/apparent","NH+&2%","basic",10.89
"14092","N(CCC(C)C)CCC(C)C","CC(C)CCNCCC(C)C","InChI=1S/C10H23N/c1-9(2)5-7-11-8-6-10(3)4/h9-11H,5-8H2,1-4H3","SPVVMXMTSODFPU-UHFFFAOYSA-N","?","27.8",,"a/thermodynamic","?","basic",10.9
"10413","[O-]N=C(CN(C)C)C","CC(CN(C)C)N=O","InChI=1S/C5H12N2O/c1-5(6-8)4-7(2)3/h5H,4H2,1-3H3","VUCIMLYSXYYKRS-UHFFFAOYSA-N","?","20","potentiometric","a1/apparent","?","basic",10.9
"12039","N1(C2(C(CCC1)CCCC2))","C1CCCC2NCCCC21","InChI=1S/C9H17N/c1-2-6-9-8(4-1)5-3-7-10-9/h8-10H,1-7H2","POTIYWUALSJREP-UHFFFAOYSA-N","?","20","potentiometric","a1/apparent","?","basic",10.9
"17443","[Se-]CCNCC","CCNCC[Se-]","InChI=1S/C4H11NSe/c1-2-5-3-4-6/h5-6H,2-4H2,1H3/p-1","BZHPNNCEEXJTOC-UHFFFAOYSA-M","?","22","potentiometric","a2/apparent","?","basic",10.91
"17677","NC(CC)(CC)C","CC(N)(CC)CC","InChI=1S/C6H15N/c1-4-6(3,7)5-2/h4-5,7H2,1-3H3","VQMPTVQCADWACQ-UHFFFAOYSA-N","?","17","mean from 2","a/apparent","?","basic",10.91
"12050","OC2(C1(N(CCC1C)CC2))","CC1CCN2CCC(O)C21","InChI=1S/C8H15NO/c1-6-2-4-9-5-3-7(10)8(6)9/h6-8,10H,2-5H2,1H3","PGMBNUMLNAJSJR-UHFFFAOYSA-N","?","24.5","potentiometric","a/apparent","NH+","basic",10.92
"17419","NCCC(C)C","CC(C)CCN","InChI=1S/C5H13N/c1-5(2)3-4-6/h5H,3-4,6H2,1-2H3","BMFVGAAISNGQNM-UHFFFAOYSA-N","?","24","mean from 3","b1/apparent","NH2","basic",10.93
"17434","[Si](CN)(C)(C)C","C[Si](C)(C)CN","InChI=1S/C4H13NSi/c1-6(2,3)4-5/h4-5H2,1-3H3","YVWPNDBYAAEZBF-UHFFFAOYSA-N","?","25","mean from 2","b/apparent","?","basic",10.94
"17439","[Se-]C(CN)(C)C","CC(C)([Se-])CN","InChI=1S/C4H11NSe/c1-4(2,6)3-5/h6H,3,5H2,1-2H3/p-1","APRGQXXPUICLRT-UHFFFAOYSA-M","?","22","potentiometric","a2/apparent","?","basic",10.95
"11907","O=C([O-])CCCCCCN","NCCCCCC=C(O)O","InChI=1S/C7H15NO2/c8-6-4-2-1-3-5-7(9)10/h5,9-10H,1-4,6,8H2","SPZZYOYPRKAYHI-UHFFFAOYSA-N","?","27","mean from 3","a2/apparent","?","basic",10.95
"12028","N2(CC1(C(CCCC1)CC2))","C1NCCC2CCCCC21","InChI=1S/C9H17N/c1-2-4-9-7-10-6-5-8(9)3-1/h8-10H,1-7H2","NENLYAQPNATJSU-UHFFFAOYSA-N","?","20","potentiometric","a1/apparent","?","basic",10.95
"17590","N1(C(CC1)C)","CC1CCN1","InChI=1S/C4H9N/c1-4-2-3-5-4/h4-5H,2-3H2,1H3","DLBWPRNUXWYLRN-UHFFFAOYSA-N","?","20","potentiometric","a1/apparent","N-H","basic",10.96
"17856","N1(CCCC1)(CC)","CCN1CCCC1","InChI=1S/C6H13N/c1-2-7-5-3-4-6-7/h2-6H2,1H3","ONQBOTKLCMXPOF-UHFFFAOYSA-N","?","25",,"a1/apparent","?","basic",10.96
"17684","N(C(C)C)CCC","CCCNC(C)C","InChI=1S/C6H15N/c1-4-5-7-6(2)3/h6-7H,4-5H2,1-3H3","VLSTXUUYLIALPB-UHFFFAOYSA-N","?",,,"b/apparent","?","basic",10.96
"13029","N1(C(C)C)(CCCCC1)","CC(C)N1CCCCC1","InChI=1S/C8H17N/c1-8(2)9-6-4-3-5-7-9/h8H,3-7H2,1-2H3","KXIXHISTUVHOCY-UHFFFAOYSA-N","?","25",,"a1/apparent","?","basic",10.96
"14119","O=C([O-])CCCCCCCN","NCCCCCCC=C(O)O","InChI=1S/C8H17NO2/c9-7-5-3-1-2-4-6-8(10)11/h6,10-11H,1-5,7,9H2","JMDWQVDCZAUJQQ-UHFFFAOYSA-N","?","22","mean from 3","a2/apparent","?","basic",10.97
"10866","ClC1(=CC(=C([O-])C=C1)CN(C)C)","CN(C)CC1C=C(Cl)C=CC=1O","InChI=1S/C9H12ClNO/c1-11(2)6-7-5-8(10)3-4-9(7)12/h3-5,12H,6H2,1-2H3","WPEGHIRPYPPYDO-UHFFFAOYSA-N","?","25","mean from 2","a2/apparent","N-H","basic",10.97
"14742","N(C)C","CNC","InChI=1S/C2H7N/c1-3-2/h3H,1-2H3","ROSDSFDQCJNGOL-UHFFFAOYSA-N","?","25","mean from 9","a1/apparent","?","basic",10.98
"17854","N1(C(CCCC1)C)","CC1CCCCN1","InChI=1S/C6H13N/c1-6-4-2-3-5-7-6/h6-7H,2-5H2,1H3","NNWUEBIEOFQMSS-UHFFFAOYSA-N","?","25","mean from 4","a1/apparent","NH3(1+)","basic",10.98
"11868","[O-]N=C(CN(CC)CC)C","CC(CN(CC)CC)N=O","InChI=1S/C7H16N2O/c1-4-9(5-2)6-7(3)8-10/h7H,4-6H2,1-3H3","FXTYMWIFSYINBD-UHFFFAOYSA-N","?","20","potentiometric","a1/apparent","?","basic",10.98
"17695","[Si](CCN)(C)(C)C","C[Si](C)(C)CCN","InChI=1S/C5H15NSi/c1-7(2,3)5-4-6/h4-6H2,1-3H3","NIBXVTMWHMMKGV-UHFFFAOYSA-N","?","25","potentiometric","a/apparent","?","basic",10.99
"17847","N1(CCCCCC1)","C1CCCCCN1","InChI=1S/C6H13N/c1-2-4-6-7-5-3-1/h7H,1-6H2","ZSIQJIWKELUFRJ-UHFFFAOYSA-N","?","25","mean from 2","a1/apparent","NH3(1+)","basic",10.99
"10202","N1(C(CCCC1C)C)","CC1CCCC(C)N1","InChI=1S/C7H15N/c1-6-4-3-5-7(2)8-6/h6-8H,3-5H2,1-2H3","SDGKUVSVPIIUCF-UHFFFAOYSA-N","?","30","potentiometric","a/apparent","NH2+","basic",10.99
"12304","O=C([O-])CCCCCCCCCCN","NCCCCCCCCCC=C(O)O","InChI=1S/C11H23NO2/c12-10-8-6-4-2-1-3-5-7-9-11(13)14/h9,13-14H,1-8,10,12H2","SJHPVRBFTAZXMY-UHFFFAOYSA-N","?","22","mean from 3","a2/apparent","?","basic",11.0
"15026","N=1(C=3(C(C(N)=C2(C=1C=CC=C2))=C(N)C=CC=3))","NC1C2C(=CC=CC=2N)N=C2C=CC=CC=12","InChI=1S/C13H11N3/c14-9-5-3-7-11-12(9)13(15)8-4-1-2-6-10(8)16-11/h1-7H,14H2,(H2,15,16)","NDNCMVVGTGZIMI-UHFFFAOYSA-N","?","20","spectrophotometric","a/apparent","?","basic",11.0
"16348","N(CCCCCCCCCCCC)CCCCCCCCCCCC","CCCCCCCCCCCCNCCCCCCCCCCCC","InChI=1S/C24H51N/c1-3-5-7-9-11-13-15-17-19-21-23-25-24-22-20-18-16-14-12-10-8-6-4-2/h25H,3-24H2,1-2H3","MJCJUDJQDGGKOX-UHFFFAOYSA-N","?","25","conductometric","b/apparent","?","basic",11.0
"17222","N(CCCCCCCCCCCCCCC)CCCCCCCCCCCCCCC","CCCCCCCCCCCCCCCNCCCCCCCCCCCCCCC","InChI=1S/C30H63N/c1-3-5-7-9-11-13-15-17-19-21-23-25-27-29-31-30-28-26-24-22-20-18-16-14-12-10-8-6-4-2/h31H,3-30H2,1-2H3","YDFFPEXFCAUTSL-UHFFFAOYSA-N","?","25","conductometric","b/apparent","?","basic",11.0
"14802","N(CCCCCCCCCCCCCCCCCC)CCCCCCCCCCCCCCCCCC","CCCCCCCCCCCCCCCCCCNCCCCCCCCCCCCCCCCCC","InChI=1S/C36H75N/c1-3-5-7-9-11-13-15-17-19-21-23-25-27-29-31-33-35-37-36-34-32-30-28-26-24-22-20-18-16-14-12-10-8-6-4-2/h37H,3-36H2,1-2H3","HKUFIYBZNQSHQS-UHFFFAOYSA-N","?","25","conductometric","b/apparent","?","basic",11.0
"17359","ClCC(=O)CCl","OC(CCl)=CCl","InChI=1S/C3H4Cl2O/c4-1-3(6)2-5/h1,6H,2H2","IUOCJUCPIZNYSV-UHFFFAOYSA-N","?","20",,"a1/apparent","?","basic",11.0
"14103","[Si](CNC[Si](C)(C)C)(C)(C)C","C[Si](C)(C)CNC[Si](C)(C)C","InChI=1S/C8H23NSi2/c1-10(2,3)7-9-8-11(4,5)6/h9H,7-8H2,1-6H3","BZJILDWKZIVTPE-UHFFFAOYSA-N","?","25","mean from 2","a/apparent","?","basic",11.0
"13220","O=C([O-])CCCCCCCCCN","NCCCCCCCCC=C(O)O","InChI=1S/C10H21NO2/c11-9-7-5-3-1-2-4-6-8-10(12)13/h8,12-13H,1-7,9,11H2","YRNWOAMGHKJYLN-UHFFFAOYSA-N","?","27","mean from 3","a2/apparent","?","basic",11.01
"13204","N(CCCCCC)CCCCCC","CCCCCCNCCCCCC","InChI=1S/C12H27N/c1-3-5-7-9-11-13-12-10-8-6-4-2/h13H,3-12H2,1-2H3","PXSXRABJBXYMFT-UHFFFAOYSA-N","?","25","conductometric","b/apparent","?","basic",11.01
"15188","N(C(C)(C)C)CCCCCCNC(C)(C)C","CC(C)(C)NCCCCCCNC(C)(C)C","InChI=1S/C14H32N2/c1-13(2,3)15-11-9-7-8-10-12-16-14(4,5)6/h15-16H,7-12H2,1-6H3","UUDNGNIYVJLSBP-UHFFFAOYSA-N","?",,"mean from 2","b1/apparent","?","basic",11.01
"10438","[S-]CCN(CC)CC","CCN(CCS)CC","InChI=1S/C6H15NS/c1-3-7(4-2)5-6-8/h8H,3-6H2,1-2H3","YBDSNEVSFQMCTL-UHFFFAOYSA-N","?","25","potentiometric","a2/apparent","NH3(1+)","basic",11.01
"10950","OC=1(C=2(C(C([O-])=CC=1)=CC=CC=2))","OC1C=CC(O)=C2C=CC=CC=12","InChI=1S/C10H8O2/c11-9-5-6-10(12)8-4-2-1-3-7(8)9/h1-6,11-12H","PCILLCXFKWDRMK-UHFFFAOYSA-N","?","19.9","spectrophotometric","a2/apparent","?","basic",11.02
"11342","O=C([O-])CCCCCCCCN","NCCCCCCCC=C(O)O","InChI=1S/C9H19NO2/c10-8-6-4-2-1-3-5-7-9(11)12/h7,11-12H,1-6,8,10H2","WMCZBNVDQGHNKB-UHFFFAOYSA-N","?","27","mean from 3","a2/apparent","?","basic",11.02
"17422","N(C(C)C)CC","CCNC(C)C","InChI=1S/C5H13N/c1-4-6-5(2)3/h5-6H,4H2,1-3H3","RIVIDPPYRINTTH-UHFFFAOYSA-N","?","25",,"a/apparent","?","basic",11.03
"12682","O=C([O-])CCCNCC","CCNCCC=C(O)O","InChI=1S/C6H13NO2/c1-2-7-5-3-4-6(8)9/h4,7-9H,2-3,5H2,1H3","CXGUMNARIVWLJE-UHFFFAOYSA-N","?","25","potentiometric","a2/apparent","?","basic",11.03
"15417","O=[N+]([O-])C=1(C=2(C(C([O-])=C(C=1)CN(CC)CC)=CC=CC=2))","CCN(CC1=CC(=C2C=CC=CC2=C1O)[N+]([O-])=O)CC","InChI=1S/C15H18N2O3/c1-3-16(4-2)10-11-9-14(17(19)20)12-7-5-6-8-13(12)15(11)18/h5-9,18H,3-4,10H2,1-2H3","RVMDQSIRTSDBRH-UHFFFAOYSA-N","?","25","spectrophotometric","a2/apparent","R2NH","basic",11.04
"17681","N(C(C)C)C(C)C","CC(C)NC(C)C","InChI=1S/C6H15N/c1-5(2)7-6(3)4/h5-7H,1-4H3","UAOMVDZJSHZZME-UHFFFAOYSA-N","?","27","mean from 2","a/thermodynamic","?","basic",11.04
"10334","N12(CCC(CC1)CC2)","C1CN2CCC1CC2","InChI=1S/C7H13N/c1-4-8-5-2-7(1)3-6-8/h7H,1-6H2","SBYHFKPVCBCYGV-UHFFFAOYSA-N","?","25","mean from 7","a1/thermodynamic","NH(+)","basic",11.04
"14049","[O-]C1(=NC=CC=2(C1=NC=CN=2))","OC1N=CC=C2N=CC=NC2=1","InChI=1S/C7H5N3O/c11-7-6-5(1-2-10-7)8-3-4-9-6/h1-4H,(H,10,11)","WUWZFLYEDXODEJ-UHFFFAOYSA-N","?","20","potentiometric","a/apparent","?","basic",11.05
"12285","N(C(C)C)CCCCCCNC(C)C","CC(C)NCCCCCCNC(C)C","InChI=1S/C12H28N2/c1-11(2)13-9-7-5-6-8-10-14-12(3)4/h11-14H,5-10H2,1-4H3","WKDYUFNLLPDLJI-UHFFFAOYSA-N","?, ?",,"potentiometric","b1/apparent","?, ?","basic",11.075
"13777","[O-]C1(=NC([O-])=C2(NC=NC2(=N1)))","OC1N=C2N=CNC2=C(O)N=1","InChI=1S/C5H4N4O2/c10-4-2-3(7-1-6-2)8-5(11)9-4/h1H,(H3,6,7,8,9,10,11)","LRFVTYWOQMYALW-UHFFFAOYSA-N","?","20","mean from 4","a3/apparent","?","basic",11.08
"12114","N1(CCNCCCNCCNCCC1)","C1CNCCCNCCNCCCN1","InChI=1S/C10H24N4/c1-3-11-7-9-13-5-2-6-14-10-8-12-4-1/h11-14H,1-10H2","MDAXKAUIABOHTD-UHFFFAOYSA-N","?","25","mean from 2","b1/apparent","HN","basic",11.1
"13170","[S-]C1(=NC(NC)=CC=N1)","CNC1C=CN=C(S)N=1","InChI=1S/C5H7N3S/c1-6-4-2-3-7-5(9)8-4/h2-3H,1H3,(H2,6,7,8,9)","VCBOLOBGWIGLSV-UHFFFAOYSA-N","?","20","potentiometric","a2/apparent","?","basic",11.1
"13024","N1(C(CC(C)CC1)(C)C)","CC1CC(C)(C)NCC1","InChI=1S/C8H17N/c1-7-4-5-9-8(2,3)6-7/h7,9H,4-6H2,1-3H3","AIRGIADVPCTKHU-UHFFFAOYSA-N","?","30","potentiometric","a/apparent","NH2+","basic",11.1
"15148","ClC1(=C([O-])C(=CC(=C1)Cl)CN2(CCCCC2))","OC1C(CN2CCCCC2)=CC(Cl)=CC=1Cl","InChI=1S/C12H15Cl2NO/c13-10-6-9(12(16)11(14)7-10)8-15-4-2-1-3-5-15/h6-7,16H,1-5,8H2","QBBRFUFZUZSXIO-UHFFFAOYSA-N","?","25","spectrophotometric","a2/apparent","R2NH","basic",11.12
"11817","[S-]C1(=NC(NCC)=CC=N1)","CCNC1C=CN=C(S)N=1","InChI=1S/C6H9N3S/c1-2-7-5-3-4-8-6(10)9-5/h3-4H,2H2,1H3,(H2,7,8,9,10)","USRSRJYWYYKJAY-UHFFFAOYSA-N","?","20","potentiometric","a2/apparent","?","basic",11.13
"10910","[S-]C1(=NC(NCCCC)=CC=N1)","CCCCNC1C=CN=C(S)N=1","InChI=1S/C8H13N3S/c1-2-3-5-9-7-4-6-10-8(12)11-7/h4,6H,2-3,5H2,1H3,(H2,9,10,11,12)","ULHKLBLPKSMLQU-UHFFFAOYSA-N","?","20","potentiometric","a2/apparent","?","basic",11.13
"11626","N1(C(CCCC1(C)C)(C)C)","CC1(C)CCCC(C)(C)N1","InChI=1S/C9H19N/c1-8(2)6-5-7-9(3,4)10-8/h10H,5-7H2,1-4H3","RKMGAJGJIURJSJ-UHFFFAOYSA-N","?","29","mean from 2","a/apparent","NH%2+&","basic",11.17
"14091","N(CCCCC)CCCCC","CCCCCNCCCCC","InChI=1S/C10H23N/c1-3-5-7-9-11-10-8-6-4-2/h11H,3-10H2,1-2H3","JACMPVXHEARCBO-UHFFFAOYSA-N","?","25","potentiometric","a/apparent","?","basic",11.18
"12228","ClC1(=CC(=C([O-])C=C1)CN(CC)CC)","CCN(CC1C=C(Cl)C=CC=1O)CC","InChI=1S/C11H16ClNO/c1-3-13(4-2)8-9-7-10(12)5-6-11(9)14/h5-7,14H,3-4,8H2,1-2H3","CGPWBKDOFMOTIZ-UHFFFAOYSA-N","?","25","mean from 6","a2/apparent","N-H","basic",11.19
"17037","[O-]C2(=CC1(=C(NC=C1CCN(C)C)C=C2))","CN(C)CCC1=CNC2=CC=C(O)C=C12","InChI=1S/C12H16N2O/c1-14(2)6-5-9-8-13-12-4-3-10(15)7-11(9)12/h3-4,7-8,13,15H,5-6H2,1-2H3","VTTONGPRPXSUTJ-UHFFFAOYSA-N","?","21","potentiometric","a2/apparent","?","basic",11.2
"12615","[O-]N=C(CCN(C)C)C","CC(CCN(C)C)N=O","InChI=1S/C6H14N2O/c1-6(7-9)4-5-8(2)3/h6H,4-5H2,1-3H3","LYXWGFDCMFCBJX-UHFFFAOYSA-N","?","20","potentiometric","a1/apparent","?","basic",11.2
"11878","N(C(CC)(C)C)(C(C)C)C","CCC(C)(C)N(C)C(C)C","InChI=1S/C9H21N/c1-7-9(4,5)10(6)8(2)3/h8H,7H2,1-6H3","HJYWUJDNOLNXCE-UHFFFAOYSA-N","?","25","potentiometric","a1/apparent","?","basic",11.2
"17309","N1(CCCCC1)","C1CCCCN1","InChI=1S/C5H11N/c1-2-4-6-5-3-1/h6H,1-5H2","NQRYJNQNLNOLGT-UHFFFAOYSA-N","?","24","mean from 21","a1/apparent","NH2%+&","basic",11.24
"14405","N1(C(CCCC1(C)C)(C)C)(C)","CN1C(C)(C)CCCC1(C)C","InChI=1S/C10H21N/c1-9(2)7-6-8-10(3,4)11(9)5/h6-8H2,1-5H3","XULIXFLCVXWHRF-UHFFFAOYSA-N","?","30","potentiometric","a1/apparent","NH%+&","basic",11.25
"13975","[O-]C=1(C=2(C(N=CC=1)=CC=CC=2))","OC1=CC=NC2=CC=CC=C21","InChI=1S/C9H7NO/c11-9-5-6-10-8-4-2-1-3-7(8)9/h1-6H,(H,10,11)","PMZDQRJGMBOQBF-UHFFFAOYSA-N","?","20","potentiometric","a2/apparent","?","basic",11.25
"15187","N(CCCCCCNCCCC)CCCC","CCCCNCCCCCCNCCCC","InChI=1S/C14H32N2/c1-3-5-11-15-13-9-7-8-10-14-16-12-6-4-2/h15-16H,3-14H2,1-2H3","VZRUGPJUVWRHKM-UHFFFAOYSA-N","?",,"potentiometric","b1/apparent","?","basic",11.28
"17224","N1(CCC1)","C1CCN1","InChI=1S/C3H7N/c1-2-4-3-1/h4H,1-3H2","HONIICLYMWZJFZ-UHFFFAOYSA-N","?","25","potentiometric","a/thermodynamic","NH2+","basic",11.29
"12732","N12(CC(C(CC1)CC2)C)","CC1CN2CCC1CC2","InChI=1S/C8H15N/c1-7-6-9-4-2-8(7)3-5-9/h7-8H,2-6H2,1H3","MWBULQNPGVGHKO-UHFFFAOYSA-N","?","25",,"a1/apparent","?","basic",11.29
"14096","N(C(C=C)(CC)C)(C(C)C)C","CCC(C)(C=C)N(C)C(C)C","InChI=1S/C10H21N/c1-7-10(5,8-2)11(6)9(3)4/h7,9H,1,8H2,2-6H3","UDYQTEPETZNJJZ-UHFFFAOYSA-N","?","25","potentiometric","a1/apparent","?","basic",11.3
"14093","N(C(C=C)(C)C)(C(C)(C)C)C","CC(C)(C)N(C)C(C)(C)C=C","InChI=1S/C10H21N/c1-8-10(5,6)11(7)9(2,3)4/h8H,1H2,2-7H3","SCPXAPGHMUYUNT-UHFFFAOYSA-N","?","25","potentiometric","a1/apparent","?","basic",11.3
"16055","N14(C(C2(CN3(CCCCC3(C(C1)C2))))CCCC4)","C1C2CC(CN3CCCCC32)C2CCCCN21","InChI=1S/C15H26N2/c1-3-7-16-11-13-9-12(14(16)5-1)10-17-8-4-2-6-15(13)17/h12-15H,1-11H2","SLRCCWJSBJZJBV-UHFFFAOYSA-N","?","20","potentiometric","a2/apparent","?","basic",11.3
"17589","N1(CCCC1)","C1CCCN1","InChI=1S/C4H9N/c1-2-4-5-3-1/h5H,1-4H2","RWRDLPDLKQPQOW-UHFFFAOYSA-N","?","25","mean from 2","a1/apparent","NH3(1+)","basic",11.3
"17115","FC1(=CC(=C([O-])C=C1)CN2(CCCCC2))","OC1C=CC(F)=CC=1CN1CCCCC1","InChI=1S/C12H16FNO/c13-11-4-5-12(15)10(8-11)9-14-6-2-1-3-7-14/h4-5,8,15H,1-3,6-7,9H2","IVYTVFCTERAZHM-UHFFFAOYSA-N","?","25","spectrophotometric","a2/apparent","R2NH","basic",11.31
"11195","OCCCC2(N1(C(CCC1)CC2))","OCCCC1CCC2CCCN21","InChI=1S/C10H19NO/c12-8-2-4-10-6-5-9-3-1-7-11(9)10/h9-10,12H,1-8H2","MAAFWIIHIQOLHG-UHFFFAOYSA-N","?, ?","25","potentiometric","a1/apparent","?, ?","basic",11.325
"14409","N(C(C)(C)C)C1(CCCCC1)","CC(C)(C)NC1CCCCC1","InChI=1S/C10H21N/c1-10(2,3)11-9-7-5-4-6-8-9/h9,11H,4-8H2,1-3H3","MTEWAFVECQBILW-UHFFFAOYSA-N","?","20","potentiometric","a/thermodynamic","?","basic",11.34
"15432","OC(C1(=CC=CC=C1))C(NCC(C)C)C2(=CC=CC=C2)","CC(C)CNC(C(O)C1=CC=CC=C1)C1=CC=CC=C1","InChI=1S/C18H23NO/c1-14(2)13-19-17(15-9-5-3-6-10-15)18(20)16-11-7-4-8-12-16/h3-12,14,17-20H,13H2,1-2H3","AFUDNVRZGPHSQO-UHFFFAOYSA-N","?",,"potentiometric","b/apparent","?","basic",11.34
"15628","S(=O)(=O)([N-]CCC(=N)N(C)C)C1(=CC=C(C)C=C1)","CC1C=CC(=CC=1)S(=O)(=O)NCCC(=N)N(C)C","InChI=1S/C12H19N3O2S/c1-10-4-6-11(7-5-10)18(16,17)14-9-8-12(13)15(2)3/h4-7,13-14H,8-9H2,1-3H3","XQBSCURQNRXBBJ-UHFFFAOYSA-N","?","24.9","potentiometric","a2/apparent","C(=NH)NMe2","basic",11.4
"12734","N12(C(C(C)CC1)CCC2)","CC1CCN2CCCC21","InChI=1S/C8H15N/c1-7-4-6-9-5-2-3-8(7)9/h7-8H,2-6H2,1H3","BFHBAQJJQJPDGF-UHFFFAOYSA-N","?","27","potentiometric","a/apparent","NH%+&","basic",11.44
"12636","N(C(C)C)(C(C)C)CC","CCN(C(C)C)C(C)C","InChI=1S/C8H19N/c1-6-9(7(2)3)8(4)5/h7-8H,6H2,1-5H3","JGFZNNIVVJXRND-UHFFFAOYSA-N","?","24.9","spectrophotometric","a2/apparent","?","basic",11.44
"15025","N=1(C=3(C(C(N)=C2(C=1C=CC=C2))=CC=C(C=3)N))","NC1C=C2N=C3C=CC=CC3=C(N)C2=CC=1","InChI=1S/C13H11N3/c14-8-5-6-10-12(7-8)16-11-4-2-1-3-9(11)13(10)15/h1-7H,14H2,(H2,15,16)","AMOPBNMABDFREG-UHFFFAOYSA-N","?","20","potentiometric","a/apparent","?","basic",11.49
"12001","N2(=C1(N(CCCC1CC2)C))","CN1CCCC2CCN=C12","InChI=1S/C8H14N2/c1-10-6-2-3-7-4-5-9-8(7)10/h7H,2-6H2,1H3","CEEYEYGFNWIFTK-UHFFFAOYSA-N","?",,,"b/apparent","?","basic",11.5
"11327","[S-]CCN(CCCC)CCCC","CCCCN(CCS)CCCC","InChI=1S/C10H23NS/c1-3-5-7-11(9-10-12)8-6-4-2/h12H,3-10H2,1-2H3","LOJUMTFVTNJLTF-UHFFFAOYSA-N","?","25","potentiometric","a2/apparent","NH3(1+)","basic",11.57
"14704","ClC1(=C([O-])C(=CC(=C1)Cl)CN(CC)CC)","CCN(CC1=CC(Cl)=CC(Cl)=C1O)CC","InChI=1S/C11H15Cl2NO/c1-3-14(4-2)7-8-5-9(12)6-10(13)11(8)15/h5-6,15H,3-4,7H2,1-2H3","LAGOLYUCONSUQY-UHFFFAOYSA-N","?","25","spectrophotometric","a2/apparent","R2NH","basic",11.57
"14099","N(C(CC)(C)C)C(CC)(C)C","CC(C)(CC)NC(C)(C)CC","InChI=1S/C10H23N/c1-7-9(3,4)11-10(5,6)8-2/h11H,7-8H2,1-6H3","SNHZNFDWSYMNDN-UHFFFAOYSA-N","?","25","potentiometric","a1/apparent","?","basic",11.6
"17888","[O-]C1(=NC=CC=C1)","OC1=CC=CC=N1","InChI=1S/C5H5NO/c7-5-3-1-2-4-6-5/h1-4H,(H,6,7)","UBQKCCHYAOITMY-UHFFFAOYSA-N","?","20","mean from 2","a1/thermodynamic","?","basic",11.68
"12727","N2(=C1(NCCC1CCC2))","C1CCC2CCNC2=N1","InChI=1S/C7H12N2/c1-2-6-3-5-9-7(6)8-4-1/h6H,1-5H2,(H,8,9)","UOBZRLPWOGECLN-UHFFFAOYSA-N","?",,,"b/apparent","?","basic",11.7
"12521","ClC1(=CC(=C(O)C=C1)CN2(CCCC2))","OC1C=CC(Cl)=CC=1CN1CCCC1","InChI=1S/C11H14ClNO/c12-10-3-4-11(14)9(7-10)8-13-5-1-2-6-13/h3-4,7,14H,1-2,5-6,8H2","RIRYSARUUQTKDI-UHFFFAOYSA-N","?","25","spectrophotometric","a2/apparent","N-H","basic",11.715
"10336","N12(C(CCC1)CCC2)","C1CCN2CCCC21","InChI=1S/C7H13N/c1-3-7-4-2-6-8(7)5-1/h7H,1-6H2","ADRDEXBBJTUCND-UHFFFAOYSA-N","?","25","potentiometric","a1/apparent","NH(1+)","basic",11.74
"13973","[O-]C2(=NC=1(C(=CC=CC=1)C=C2))","OC1=CC=C2C=CC=CC2=N1","InChI=1S/C9H7NO/c11-9-6-5-7-3-1-2-4-8(7)10-9/h1-6H,(H,10,11)","LISFMEBWQUVKPJ-UHFFFAOYSA-N","?","20","potentiometric","a1/apparent","?","basic",11.74
"17113","ClC1(=CC(=C([O-])C=C1)CN2(CCCCC2))","OC1C=CC(Cl)=CC=1CN1CCCCC1","InChI=1S/C12H16ClNO/c13-11-4-5-12(15)10(8-11)9-14-6-2-1-3-7-14/h4-5,8,15H,1-3,6-7,9H2","GVAMPYVXAAFYCE-UHFFFAOYSA-N","?","25","spectrophotometric","a2/apparent","R2NH","basic",11.76
"16269","O=C([O-])CN(CC1(=C([O-])C=CC=C1))CC(=O)[O-]","OC1C=CC=CC=1CN(C=C(O)O)C=C(O)O","InChI=1S/C11H13NO5/c13-9-4-2-1-3-8(9)5-12(6-10(14)15)7-11(16)17/h1-4,6-7,13-17H,5H2","UMJJBGYFPIWLNP-UHFFFAOYSA-N","?","20","potentiometric","a3/apparent","?","basic",11.79