"Molecule name","OriginalSmiles","Canonical_QSARr","InChI_Code_QSARr","InChI Key_QSARr","Salt_Solvent (Concatenate)","temp","method","type","group","basicOrAcidic","pKa"
"11675","SCCNC1(=CC=CC=C1)","SCCNC1C=CC=CC=1","InChI=1S/C8H11NS/c10-7-6-9-8-4-2-1-3-5-8/h1-5,9-10H,6-7H2","GSZFZXVMYGIDGE-UHFFFAOYSA-N","?","25","potentiometric","a1/apparent","NH3(1+)","basic",3.78
"10233","[Br]C1(=CC=C(N)C=C1)","NC1=CC=C(Br)C=C1","InChI=1S/C6H6BrN/c7-5-1-3-6(8)4-2-5/h1-4H,8H2","WDFQBORIUYODSI-UHFFFAOYSA-N","?","23","mean from 6","a1/apparent","NH3(+)","basic",3.79
"10232","IC1(=CC=C(N)C=C1)","NC1=CC=C(I)C=C1","InChI=1S/C6H6IN/c7-5-1-3-6(8)4-2-5/h1-4H,8H2","VLVCDUSVTXIWGW-UHFFFAOYSA-N","?","25","mean from 3","a/thermodynamic","?","basic",3.79
"11038","N2(=CC(C1(=CN=CC=C1))=CC=C2)","C1=NC=CC=C1C1=CN=CC=C1","InChI=1S/C10H8N2/c1-3-9(7-11-5-1)10-4-2-6-12-8-10/h1-8H","OFDVABAUFQJWEZ-UHFFFAOYSA-N","?, ?","20","potentiometric","a2/apparent","?, ?","basic",3.8
"13336","O=C(N)C=1(C=2(C(C=NC=1)=CC=CC=2))","NC(=O)C1=CN=CC2=CC=CC=C21","InChI=1S/C10H8N2O/c11-10(13)9-6-12-5-7-3-1-2-4-8(7)9/h1-6H,(H2,11,13)","JGNIYFRSFZEFCQ-UHFFFAOYSA-N","?","25","spectrophotometric","a1/thermodynamic","N(+)-H","basic",3.8
"16335","O1(C(=CC=C1)CNC2(=NC=NC3(=C2C=NN3C)))","CN1N=CC2C(NCC3=CC=CO3)=NC=NC1=2","InChI=1S/C11H11N5O/c1-16-11-9(6-15-16)10(13-7-14-11)12-5-8-3-2-4-17-8/h2-4,6-7H,5H2,1H3,(H,12,13,14)","SLSBIKJXTHGILH-UHFFFAOYSA-N","?","20","spectrophotometric","a/apparent","?","basic",3.8
"17028","O=C(NC1(=CN=CC=C1))C2(=CC=CC=C2)","O=C(NC1=CN=CC=C1)C1C=CC=CC=1","InChI=1S/C12H10N2O/c15-12(10-5-2-1-3-6-10)14-11-7-4-8-13-9-11/h1-9H,(H,14,15)","BBTGWRLIETYEJO-UHFFFAOYSA-N","?",,"spectrophotometric","a/apparent","?","basic",3.8
"16700","S(=O)(C3(=CC(OC)=C(C1(=NC=2(NN=CC=2(N1))))C=C3))C","CS(=O)C1=CC(OC)=C(C=C1)C1NC2C=NNC=2N=1","InChI=1S/C12H12N4O2S/c1-18-10-5-7(19(2)17)3-4-8(10)11-14-9-6-13-16-12(9)15-11/h3-6H,1-2H3,(H2,13,14,15,16)","RZRCMIUAAYOZMZ-UHFFFAOYSA-N","?","25","spectrophotometric","a1/apparent","?","basic",3.8
"16110","S(=O)(=O)(N)C=2(C=1(C(=C(N(C)C)C=CC=1)C=CC=2))","CN(C)C1C=CC=C2C(=CC=CC=12)S(N)(=O)=O","InChI=1S/C12H14N2O2S/c1-14(2)11-7-3-6-10-9(11)5-4-8-12(10)17(13,15)16/h3-8H,1-2H3,(H2,13,15,16)","TYNBFJJKZPTRKS-UHFFFAOYSA-N","?","25","spectrophotometric","a1/apparent","?","basic",3.8
"15343","O=C(N)C3(=CC(OC)=C(C1(=NC=2(N(C=NC=2(N1))C)))C=C3)","CN1C=NC2NC(=NC1=2)C1C=CC(=CC=1OC)C(N)=O","InChI=1S/C13H13N5O2/c1-18-6-15-12-13(18)17-11(16-12)8-4-3-7(10(14)19)5-9(8)20-2/h3-6H,1-2H3,(H2,14,19)(H,16,17)","JZLVVGOQVOEHFO-UHFFFAOYSA-N","?","25","spectrophotometric","a1/apparent","?","basic",3.8
"17303","[Br]C=1(N=CNC=1)","BrC1=CNC=N1","InChI=1S/C3H3BrN2/c4-3-1-5-2-6-3/h1-2H,(H,5,6)","FHZALEJIENDROK-UHFFFAOYSA-N","?","25","potentiometric","b1/apparent","?","basic",3.8
"13997","ONC1(=NC=NC2(=C1NC=N2))","ONC1=NC=NC2N=CNC1=2","InChI=1S/C5H5N5O/c11-10-5-3-4(7-1-6-3)8-2-9-5/h1-2,11H,(H2,6,7,8,9,10)","CBCQWVQNMGNYEO-UHFFFAOYSA-N","?",,"spectrophotometric","a1/apparent","?","basic",3.8
"14328","ON=C(NO)C1(=CC=CC=C1)","ONC(N=O)C1C=CC=CC=1","InChI=1S/C7H8N2O2/c10-8-7(9-11)6-4-2-1-3-5-6/h1-5,7-8,10H","JKXMFTPOGBFPGK-UHFFFAOYSA-N","?","20","potentiometric","a1/apparent","?","basic",3.8
"10719","O=C(N1(C=NC=C1))CC(C)(C)C","CC(C)(C)C=C(O)N1C=NC=C1","InChI=1S/C9H14N2O/c1-9(2,3)6-8(12)11-5-4-10-7-11/h4-7,12H,1-3H3","GVLFKRIJOFIBRT-UHFFFAOYSA-N","?","30",,"a1/apparent","?","basic",3.8
"13363","NC2(=C(C1(=CC=CC=C1))C=CC=C2)","NC1C=CC=CC=1C1C=CC=CC=1","InChI=1S/C12H11N/c13-12-9-5-4-8-11(12)10-6-2-1-3-7-10/h1-9H,13H2","TWBPWBPGNQWFSJ-UHFFFAOYSA-N","?","18","mean from 2","a/thermodynamic","?","basic",3.81
"17903","N=1(N(C=CC=1N)C)","CN1C=CC(N)=N1","InChI=1S/C4H7N3/c1-7-3-2-4(5)6-7/h2-3H,1H3,(H2,5,6)","MOGQNVSKBCVIPW-UHFFFAOYSA-N","?","25","potentiometric","a1/apparent","NH+","basic",3.81
"15009","O(C3(=CC=1(C(=NC2(=CC=CC=C2(C=1)))C=C3)))C","COC1=CC2=CC3=CC=CC=C3N=C2C=C1","InChI=1S/C14H11NO/c1-16-12-6-7-14-11(9-12)8-10-4-2-3-5-13(10)15-14/h2-9H,1H3","NOIQZLIGXCQSEV-UHFFFAOYSA-N","?","25.5","potentiometric","b/apparent","?","basic",3.82
"10310","N1(=C(N=CC=C1)NC)","CNC1N=CC=CN=1","InChI=1S/C5H7N3/c1-6-5-7-3-2-4-8-5/h2-4H,1H3,(H,6,7,8)","BQNXHDSGGRTFNX-UHFFFAOYSA-N","?","22","potentiometric","a/apparent","?","basic",3.82
"13000","NC1(=C(C=CC=C1C)C)","CC1C=CC=C(C)C=1N","InChI=1S/C8H11N/c1-6-4-3-5-7(2)8(6)9/h3-5H,9H2,1-2H3","UFFBMTHBGFGIHF-UHFFFAOYSA-N","?","25","mean from 4","a1/apparent","NH2","basic",3.84
"13301","N1(=C(CC(C)=NC2(=C1C=CC=C2))C)","CC1CC(C)=NC2C=CC=CC=2N=1","InChI=1S/C11H12N2/c1-8-7-9(2)13-11-6-4-3-5-10(11)12-8/h3-6H,7H2,1-2H3","KSFDHSSNYJNHAN-UHFFFAOYSA-N","?","25","conductometric","a1/apparent","?","basic",3.85
"16744","O(C3(=CC=C(C=NC2(=NC=1(NC=NC=1C=N2)))C=C3))C","COC1C=CC(C=NC2=NC3NC=NC=3C=N2)=CC=1","InChI=1S/C13H11N5O/c1-19-10-4-2-9(3-5-10)6-14-13-15-7-11-12(18-13)17-8-16-11/h2-8H,1H3,(H,15,16,17,18)","DHPVXJQBIMEMJA-UHFFFAOYSA-N","?","25","spectrophotometric","a1/apparent","NH","basic",3.86
"12554","OCCNC1(=NC=NC2(=C1C=NN2C))","CN1N=CC2C(NCCO)=NC=NC1=2","InChI=1S/C8H11N5O/c1-13-8-6(4-12-13)7(9-2-3-14)10-5-11-8/h4-5,14H,2-3H2,1H3,(H,9,10,11)","SBIPJPUEWYCJJM-UHFFFAOYSA-N","?","20","spectrophotometric","a/apparent","?","basic",3.86
"11233","N2(=C(N(C)C)C=1(NC=NC=1N=C2))","CN(C)C1=NC=NC2N=CNC=21","InChI=1S/C7H9N5/c1-12(2)7-5-6(9-3-8-5)10-4-11-7/h3-4H,1-2H3,(H,8,9,10,11)","BVIAOQMSVZHOJM-UHFFFAOYSA-N","?","20","potentiometric","a1/apparent","?","basic",3.87
"11146","S(C=1(C=NC2(=CC=CC=C2(C=1))))C","CSC1=CC2=CC=CC=C2N=C1","InChI=1S/C10H9NS/c1-12-9-6-8-4-2-3-5-10(8)11-7-9/h2-7H,1H3","GYORPPNTMWUJCH-UHFFFAOYSA-N","?","20","spectrophotometric","a/apparent","NH%+&","basic",3.88
"15015","N3(=C(N)C2(=C(N(C1(=CC=CC=C1))N=C2)N=C3))","NC1=NC=NC2=C1C=NN2C1C=CC=CC=1","InChI=1S/C11H9N5/c12-10-9-6-15-16(11(9)14-7-13-10)8-4-2-1-3-5-8/h1-7H,(H2,12,13,14)","KKDPIZPUTYIBFX-UHFFFAOYSA-N","?","20","spectrophotometric","a/apparent","?","basic",3.89
"11700","O=CC1(=NC=CC=C1OC)","COC1=CC=CN=C1C=O","InChI=1S/C7H7NO2/c1-10-7-3-2-4-8-6(7)5-9/h2-5H,1H3","GHKILJGWQPBQGL-UHFFFAOYSA-N","?","20","spectrophotometric","a1/apparent","H+","basic",3.89
"16742","O3(C(N2(C1(=C(N=CN=C1N=C2)N)))C(O)C(C3CO)O)","NC1N=CN=C2N=CN(C3OC(CO)C(O)C3O)C2=1","InChI=1S/C10H13N5O4/c11-8-5-9(13-2-12-8)14-3-15(5)10-7(18)6(17)4(1-16)19-10/h2-4,6-7,10,16-18H,1H2,(H2,11,12,13)","UGBOLVVJCMKMDN-UHFFFAOYSA-N","?",,"spectrophotometric","a/apparent","?","basic",3.9
"17178","OC=2(C1(=NC=CC=C1C3(=NC=CC=C3(C=2))))","OC1=CC2=CC=CN=C2C2=CC=CN=C21","InChI=1S/C12H8N2O/c15-10-7-8-3-1-5-13-11(8)9-4-2-6-14-12(9)10/h1-7,15H","PXOANWSLOXLDFQ-UHFFFAOYSA-N","?","20",,"a1/apparent","?","basic",3.9
"16530","S(=O)(C3(=CC(OC)=C(C1(=NC=2(N=CC(=CC=2(N1))N)))C=C3))C","CS(=O)C1=CC(OC)=C(C=C1)C1NC2C=C(N)C=NC=2N=1","InChI=1S/C14H14N4O2S/c1-20-12-6-9(21(2)19)3-4-10(12)13-17-11-5-8(15)7-16-14(11)18-13/h3-7H,15H2,1-2H3,(H,16,17,18)","VDFNDGBUMJWCPT-UHFFFAOYSA-N","?","25",,"a1/apparent","?","basic",3.9
"15330","OC(C1(=NC=CC=C1))(C2(=CC=CC=C2))C3(=CC=CC=C3)","OC(C1C=CC=CN=1)(C1C=CC=CC=1)C1C=CC=CC=1","InChI=1S/C18H15NO/c20-18(15-9-3-1-4-10-15,16-11-5-2-6-12-16)17-13-7-8-14-19-17/h1-14,20H","IBNTYLTYDKBLRC-UHFFFAOYSA-N","?","25","spectrophotometric","a1/thermodynamic","prot.","basic",3.9
"15361","S(=O)(C3(=CC(OC)=C(C1(=NC=2(N=CC=CC=2(N1))))C=C3))C","CS(=O)C1=CC(OC)=C(C=C1)C1NC2C=CC=NC=2N=1","InChI=1S/C14H13N3O2S/c1-19-12-8-9(20(2)18)5-6-10(12)13-16-11-4-3-7-15-14(11)17-13/h3-8H,1-2H3,(H,15,16,17)","XMFCOYRWYYXZMY-UHFFFAOYSA-N","?, ?","25","mean from 3","a1/apparent","?, ?","basic",3.9000000000000004
"13899","NC=1(C=2(C(C=CC=1)=CC=CC=2))","NC1=CC=CC2=CC=CC=C21","InChI=1S/C10H9N/c11-10-7-3-5-8-4-1-2-6-9(8)10/h1-7H,11H2","RUFPHBVGCFYCNW-UHFFFAOYSA-N","?","21","mean from 4","b1/apparent","NH(1+)","basic",3.92
"15017","N3(=C(NC1(=CC=CC=C1))C2(=C(NN=C2)N=C3))","C1=NC2NN=CC=2C(NC2C=CC=CC=2)=N1","InChI=1S/C11H9N5/c1-2-4-8(5-3-1)15-10-9-6-14-16-11(9)13-7-12-10/h1-7H,(H2,12,13,14,15,16)","UOIOGRJMBMHOJZ-UHFFFAOYSA-N","?","20","spectrophotometric","a/apparent","?","basic",3.92
"11151","S(C1(=NC=CC=2(C1=CC=CC=2)))C","CSC1=NC=CC2=CC=CC=C21","InChI=1S/C10H9NS/c1-12-10-9-5-3-2-4-8(9)6-7-11-10/h2-7H,1H3","JXBLZDYHEXHSLA-UHFFFAOYSA-N","?","20","spectrophotometric","a/apparent","NH%+&","basic",3.93
"14038","N1(=C(N)C=NC=2(C1=CC=CC=2))","NC1C=NC2=CC=CC=C2N=1","InChI=1S/C8H7N3/c9-8-5-10-6-3-1-2-4-7(6)11-8/h1-5H,(H2,9,11)","YOWAEZWWQFSEJD-UHFFFAOYSA-N","?","20","mean from 2","a/apparent","?","basic",3.93
"12967","ON=CC1(=CN=CC=C1)","O=NCC1=CN=CC=C1","InChI=1S/C6H6N2O/c9-8-5-6-2-1-3-7-4-6/h1-4H,5H2","KCSJZTIJVFFNRL-UHFFFAOYSA-N","?","25","spectrophotometric","a1/thermodynamic","prot.","basic",3.94
"13865","OC2(=CC=1(C(=CN=NC=1)C=C2))","OC1=CC2=CN=NC=C2C=C1","InChI=1S/C8H6N2O/c11-8-2-1-6-4-9-10-5-7(6)3-8/h1-5,11H","LWCGXQKEMUSFSB-UHFFFAOYSA-N","?","20",,"a1/apparent","?","basic",3.94
"15892","S(=O)(=O)(OC3(=CC(OC)=C(C=1(N=C2(N=CC=CN2(C=1))))C=C3))C","COC1C=C(C=CC=1C1=CN2C=CC=NC2=N1)OS(C)(=O)=O","InChI=1S/C14H13N3O4S/c1-20-13-8-10(21-22(2,18)19)4-5-11(13)12-9-17-7-3-6-15-14(17)16-12/h3-9H,1-2H3","RWZQTVFMAPBWPF-UHFFFAOYSA-N","?","25",,"a1/apparent","?","basic",3.95
"16913","O=C([O-])C3(OC(OC=1(C=NC2(=CC=CC=C2(C=1))))C(O)C(C3O)O)","OC(O)=C1OC(OC2=CC3C=CC=CC=3N=C2)C(O)C(O)C1O","InChI=1S/C15H15NO7/c17-10-11(18)13(14(20)21)23-15(12(10)19)22-8-5-7-3-1-2-4-9(7)16-6-8/h1-6,10-12,15,17-21H","IPJVYZWQHXCELT-UHFFFAOYSA-N","?","22","potentiometric","a2/apparent","?","basic",3.95
"13919","[SH2+]C2(=CC=1(C(=NC=CC=1)C=C2))","SC1C=C2C=CC=NC2=CC=1","InChI=1S/C9H7NS/c11-8-3-4-9-7(6-8)2-1-5-10-9/h1-6,11H","WKTZMPNNJIPTON-UHFFFAOYSA-N","?","20","spectrophotometric","a1/apparent","?","basic",3.95
"12392","ClC2(=CN=C(C1(=NC=C(Cl)C=C1))C=C2)","ClC1=CN=C(C=C1)C1C=CC(Cl)=CN=1","InChI=1S/C10H6Cl2N2/c11-7-1-3-9(13-5-7)10-4-2-8(12)6-14-10/h1-6H","HYCKHRIFJYTAEM-UHFFFAOYSA-N","?",,"spectrophotometric","a/apparent","?","basic",3.96
"15567","ClC3(=CC=C(CNC1(=NC=NC2(=C1C=NN2)))C=C3)","ClC1C=CC(CNC2=NC=NC3NN=CC2=3)=CC=1","InChI=1S/C12H10ClN5/c13-9-3-1-8(2-4-9)5-14-11-10-6-17-18-12(10)16-7-15-11/h1-4,6-7H,5H2,(H2,14,15,16,17,18)","HIJAYGQGZJIOQK-UHFFFAOYSA-N","?","20","spectrophotometric","a/apparent","?","basic",3.96
"10083","N=1(N(C(C)=CC=1C)C)","CC1=CC(C)=NN1C","InChI=1S/C6H10N2/c1-5-4-6(2)8(3)7-5/h4H,1-3H3","HNOQAFMOBRWDKQ-UHFFFAOYSA-N","?","25","potentiometric","a1/apparent","?","basic",3.96
"10230","ClC1(=CC=C(N)C=C1)","NC1=CC=C(Cl)C=C1","InChI=1S/C6H6ClN/c7-5-1-3-6(8)4-2-5/h1-4H,8H2","QSNSCYSYFYORTR-UHFFFAOYSA-N","?","23","mean from 9","a1/apparent","NH3(+)","basic",3.96
"13162","N1(=C(N=CC=C1)N(C)C)","CN(C)C1N=CC=CN=1","InChI=1S/C6H9N3/c1-9(2)6-7-4-3-5-8-6/h3-5H,1-2H3","OUMGIYIBWRLOAF-UHFFFAOYSA-N","?","20","potentiometric","a/apparent","?","basic",3.96
"15581","N2(=C(C1(=NC=CC=C1))C=CC=C2C3(=NC=CC=C3))","C1=CC=C(N=C1C1C=CC=CN=1)C1C=CC=CN=1","InChI=1S/C15H11N3/c1-3-10-16-12(6-1)14-8-5-9-15(18-14)13-7-2-4-11-17-13/h1-11H","DRGAZIDRYFYHIJ-UHFFFAOYSA-N","?, ?","25","spectrophotometric","a2/apparent","?, ?","basic",3.9699999999999998
"15013","N1(=C(N=CC3(=C1N=C(C2(=CC=CC=C2))N3))N)","NC1=NC2N=C(NC=2C=N1)C1C=CC=CC=1","InChI=1S/C11H9N5/c12-11-13-6-8-10(16-11)15-9(14-8)7-4-2-1-3-5-7/h1-6H,(H3,12,13,14,15,16)","JKDGDCLMBYSMPO-UHFFFAOYSA-N","?","20","potentiometric","a1/apparent","?","basic",3.98
"15341","O=C(N)C3(=CC(OC)=C(C1(=NC2(=NN(C)C=C2(N1))))C=C3)","CN1C=C2NC(=NC2=N1)C1C=CC(=CC=1OC)C(N)=O","InChI=1S/C13H13N5O2/c1-18-6-9-13(17-18)16-12(15-9)8-4-3-7(11(14)19)5-10(8)20-2/h3-6H,1-2H3,(H2,14,19)(H,15,16,17)","KCXTUXOGEKLGPM-UHFFFAOYSA-N","?","25","spectrophotometric","a1/apparent","?","basic",3.98
"17169","ClC=2(C=NC3(=C1(N=CC=CC1=CC=C3(C=2))))","ClC1C=NC2=C3N=CC=CC3=CC=C2C=1","InChI=1S/C12H7ClN2/c13-10-6-9-4-3-8-2-1-5-14-11(8)12(9)15-7-10/h1-7H","GXGJNWOPQOQKQF-UHFFFAOYSA-N","?","25","potentiometric","a/apparent","?","basic",3.99
"10080","N1(=NC(=CC=C1C)C)","CC1=CC=C(C)N=N1","InChI=1S/C6H8N2/c1-5-3-4-6(2)8-7-5/h3-4H,1-2H3","BGVTUIRPHLSMJU-UHFFFAOYSA-N","?","16.5","potentiometric","a/apparent","?","basic",3.99
"12436","[Br]CC1(=NC=2(C(O)=CC=C(C=2(N1C))O))","CN1C(CBr)=NC2=C1C(O)=CC=C2O","InChI=1S/C9H9BrN2O2/c1-12-7(4-10)11-8-5(13)2-3-6(14)9(8)12/h2-3,13-14H,4H2,1H3","WWIHBPPLUFGQPT-UHFFFAOYSA-N","?","30","spectrophotometric","a1/apparent","N(1+)-H","basic",3.99
"12487","O=C(C=2(C=1(C(=NC=CC=1)C(O)=CC=2)))C","C=C(O)C1=CC=C(O)C2=NC=CC=C12","InChI=1S/C11H9NO2/c1-7(13)8-4-5-10(14)11-9(8)3-2-6-12-11/h2-6,13-14H,1H2","YTLCSLDZJTZDFB-UHFFFAOYSA-N","?","25","potentiometric","a1/apparent","NH+","basic",4.0
"14757","N1(=CN(CC[NH+](CCCCCCCCCCCCCCCC)CCCCCCCCCCCCCCCC)C=C1)","CCCCCCCCCCCCCCCCN(CCN1C=NC=C1)CCCCCCCCCCCCCCCC","InChI=1S/C37H73N3/c1-3-5-7-9-11-13-15-17-19-21-23-25-27-29-32-39(35-36-40-34-31-38-37-40)33-30-28-26-24-22-20-18-16-14-12-10-8-6-4-2/h31,34,37H,3-30,32-33,35-36H2,1-2H3","NQNIVXRPZMSASA-UHFFFAOYSA-N","?","20","potentiometric","a2/apparent","?","basic",4.0
"17778","N1(=NC=CN=C1N)","NC1N=NC=CN=1","InChI=1S/C3H4N4/c4-3-5-1-2-6-7-3/h1-2H,(H2,4,5,7)","MJIWQHRXSLOUJN-UHFFFAOYSA-N","?","20",,"a/apparent","?","basic",4.0
"11583","O=C1(N=C(C=C(N1C)C)C)","CC1=CC(C)=NC(=O)N1C","InChI=1S/C7H10N2O/c1-5-4-6(2)9(3)7(10)8-5/h4H,1-3H3","DFIRQBAOBSARLW-UHFFFAOYSA-N","?",,"potentiometric","a/apparent","?","basic",4.0
"14019","N=1(NC=2(C=C(N)C=CC=2(C=1C)))","CC1=NNC2C=C(N)C=CC=21","InChI=1S/C8H9N3/c1-5-7-3-2-6(9)4-8(7)11-10-5/h2-4H,9H2,1H3,(H,10,11)","HWSCSUHNTVVKSR-UHFFFAOYSA-N","?",,"potentiometric","a/apparent","?","basic",4.0
"13584","[Br]C=1(N=CN(C=1)C(=O)CC(C)(C)C)","CC(C)(C)C=C(O)N1C=C(Br)N=C1","InChI=1S/C9H13BrN2O/c1-9(2,3)4-8(13)12-5-7(10)11-6-12/h4-6,13H,1-3H3","WNQJIMAHSHHZFL-UHFFFAOYSA-N","?","30",,"a1/apparent","?","basic",4.0
"11053","N1(=CC(=CC=C1)C2(NCCCC2))","C1CCCC(N1)C1C=NC=CC=1","InChI=1S/C10H14N2/c1-2-7-12-10(5-1)9-4-3-6-11-8-9/h3-4,6,8,10,12H,1-2,5,7H2","MTXSIJUGVMTTMU-UHFFFAOYSA-N","?","29","mean from 2","a/apparent","?","basic",4.01
"15020","O1(C(=CC=C1)CNC2(=NC=NC3(=C2C=NN3)))","C(NC1=NC=NC2NN=CC1=2)C1=CC=CO1","InChI=1S/C10H9N5O/c1-2-7(16-3-1)4-11-9-8-5-14-15-10(8)13-6-12-9/h1-3,5-6H,4H2,(H2,11,12,13,14,15)","KWGOKOFSPBXMSX-UHFFFAOYSA-N","?","20","spectrophotometric","a/apparent","?","basic",4.01
"15319","O3(C(N2(C1(=C(C=CC=C1)N=C2)))C(O)C(O)C(C3CO)O)","OCC1OC(C(O)C(O)C1O)N1C=NC2C=CC=CC1=2","InChI=1S/C13H16N2O5/c16-5-9-10(17)11(18)12(19)13(20-9)15-6-14-7-3-1-2-4-8(7)15/h1-4,6,9-13,16-19H,5H2","NHKVPYHQEIYTJO-UHFFFAOYSA-N","?","25","potentiometric","a/apparent","?","basic",4.01
"13812","N=2(C1(=C(N)C=CC=C1C=CC=2))","NC1C=CC=C2C=CC=NC2=1","InChI=1S/C9H8N2/c10-8-5-1-3-7-4-2-6-11-9(7)8/h1-6H,10H2","WREVVZMUNPAPOV-UHFFFAOYSA-N","?","20","mean from 2","a/apparent","?","basic",4.01
"13038","[Br]C1(=C(C=CC(=C1)N)C)","CC1C=CC(N)=CC=1Br","InChI=1S/C7H8BrN/c1-5-2-3-6(9)4-7(5)8/h2-4H,9H2,1H3","GRXMMIBZRMKADT-UHFFFAOYSA-N","?","18","mean from 2","a/apparent","?","basic",4.02
"11230","N1(=C(N=CC2(=C1N=CN2))N(C)C)","CN(C)C1=NC2N=CNC=2C=N1","InChI=1S/C7H9N5/c1-12(2)7-8-3-5-6(11-7)10-4-9-5/h3-4H,1-2H3,(H,8,9,10,11)","BXJVBCCMZKYRGE-UHFFFAOYSA-N","?","20","potentiometric","a1/apparent","?","basic",4.02
"17175","[Br]C=1(C=3(C(N=CC=1)=C2(N=CC=CC2=CC=3)))","BrC1=CC=NC2=C3N=CC=CC3=CC=C21","InChI=1S/C12H7BrN2/c13-10-5-7-15-12-9(10)4-3-8-2-1-6-14-11(8)12/h1-7H","WITRVHHXXZEEPD-UHFFFAOYSA-N","?","25","potentiometric","a/apparent","?","basic",4.03
"12888","N1(=NC=CC(=C1C)CC)","CC1N=NC=CC=1CC","InChI=1S/C7H10N2/c1-3-7-4-5-8-9-6(7)2/h4-5H,3H2,1-2H3","CLSHIVMNTIHKFG-UHFFFAOYSA-N","?","20.5","potentiometric","a/apparent","?","basic",4.03
"14366","ON=C(N)C1(=C(C=CC=C1)C)","CC1C=CC=CC=1C(N)N=O","InChI=1S/C8H10N2O/c1-6-4-2-3-5-7(6)8(9)10-11/h2-5,8H,9H2,1H3","DZDCKNBVRCMURN-UHFFFAOYSA-N","?","25","potentiometric","a/apparent","?","basic",4.03
"15523","O3(C(N2(C1(=C(C=CC=C1)N=C2)))C(O)C(O)C(C3)O)","OC1C(O)COC(C1O)N1C=NC2C=CC=CC1=2","InChI=1S/C12H14N2O4/c15-9-5-18-12(11(17)10(9)16)14-6-13-7-3-1-2-4-8(7)14/h1-4,6,9-12,15-17H,5H2","MHNDBZLZYGCLCA-UHFFFAOYSA-N","?, ?","25","potentiometric","a/apparent","?, ?","basic",4.035
"10847","O(CCNC1(=CC=CC=C1))CC","CCOCCNC1C=CC=CC=1","InChI=1S/C10H15NO/c1-2-12-9-8-11-10-6-4-3-5-7-10/h3-7,11H,2,8-9H2,1H3","JLYJJRHBGXOWSQ-UHFFFAOYSA-N","?","24.9","spectrophotometric","a1/apparent","NH","basic",4.04
"14661","OCNC1(=NC(=NC(=N1)NCO)NCO)","OCNC1N=C(NCO)N=C(NCO)N=1","InChI=1S/C6H12N6O3/c13-1-7-4-10-5(8-2-14)12-6(11-4)9-3-15/h13-15H,1-3H2,(H3,7,8,9,10,11,12)","USDJGQLNFPZEON-UHFFFAOYSA-N","?","25","mean from 3","b/apparent","?","basic",4.05
"13036","ClC1(=C(C=CC(=C1)N)C)","CC1C=CC(N)=CC=1Cl","InChI=1S/C7H8ClN/c1-5-2-3-6(9)4-7(5)8/h2-4H,9H2,1H3","RQKFYFNZSHWXAW-UHFFFAOYSA-N","?",,,"a/apparent","?","basic",4.05
"13041","S(C1(=CC(N)=CC=C1))C","CSC1C=CC=C(N)C=1","InChI=1S/C7H9NS/c1-9-7-4-2-3-6(8)5-7/h2-5H,8H2,1H3","KCHLDNLIJVSRPK-UHFFFAOYSA-N","?","25","potentiometric","a/apparent","?","basic",4.05
"14510","O(CCNC1(=CC=CC=C1))C","COCCNC1C=CC=CC=1","InChI=1S/C9H13NO/c1-11-8-7-10-9-5-3-2-4-6-9/h2-6,10H,7-8H2,1H3","XTTMNDFFWSZHCZ-UHFFFAOYSA-N","?","24.9","spectrophotometric","a1/apparent","NH","basic",4.05
"13437","N2(=C(N(C)C)C1(=C(N(C)N=C1)N=C2))","CN(C)C1=NC=NC2=C1C=NN2C","InChI=1S/C8H11N5/c1-12(2)7-6-4-11-13(3)8(6)10-5-9-7/h4-5H,1-3H3","QWNBAYXVUGENHL-UHFFFAOYSA-N","?","20","spectrophotometric","a/apparent","?","basic",4.06
"16550","O=C(OCC)C3(=C(OCC)C=1(C(=CC=2(OCOC=2(C=1)))N=C3))","CCOC(=O)C1C=NC2=CC3OCOC=3C=C2C=1OCC","InChI=1S/C15H15NO5/c1-3-18-14-9-5-12-13(21-8-20-12)6-11(9)16-7-10(14)15(17)19-4-2/h5-7H,3-4,8H2,1-2H3","YRTSFGKVUOLBDZ-UHFFFAOYSA-N","?","20","spectrophotometric","a1/apparent","?","basic",4.09
"11782","[Br]C1(=C(OC)C=CC(=C1)N)","COC1C=CC(N)=CC=1Br","InChI=1S/C7H8BrNO/c1-10-7-3-2-5(9)4-6(7)8/h2-4H,9H2,1H3","NMUFTXMBONJQTC-UHFFFAOYSA-N","?","17","mean from 2","a/thermodynamic","?","basic",4.09
"11766","OCCNC1(=CC=CC=C1)","OCCNC1C=CC=CC=1","InChI=1S/C8H11NO/c10-7-6-9-8-4-2-1-3-5-8/h1-5,9-10H,6-7H2","MWGATWIBSKHFMR-UHFFFAOYSA-N","?","24.9","spectrophotometric","a1/apparent","NH","basic",4.09
"11129","N=1(C=2(C(C=CC=1C)=CC=CC=2C))","CC1C=CC2=CC=CC(C)=C2N=1","InChI=1S/C11H11N/c1-8-4-3-5-10-7-6-9(2)12-11(8)10/h3-7H,1-2H3","BELFSAVWJLQIBB-UHFFFAOYSA-N","?","25","potentiometric","b/apparent","?","basic",4.1
"15087","ClCC1(=NC=2(C(OC)=CC=C(C=2(N1C))OC))","COC1=CC=C(OC)C2N=C(CCl)N(C)C1=2","InChI=1S/C11H13ClN2O2/c1-14-9(6-12)13-10-7(15-2)4-5-8(16-3)11(10)14/h4-5H,6H2,1-3H3","YGJBMYVDJNDQFZ-UHFFFAOYSA-N","?","30","spectrophotometric","a1/apparent","N(1+)-H","basic",4.1
"16430","O4(C(N2(C=1(N=CN3(C=CN=C3(C=1N=C2)))))C(O)C(C4CO)O)","OCC1OC(C(O)C1O)N1C=NC2C3=NC=CN3C=NC1=2","InChI=1S/C12H13N5O4/c18-3-6-8(19)9(20)12(21-6)17-5-14-7-10-13-1-2-16(10)4-15-11(7)17/h1-2,4-6,8-9,12,18-20H,3H2","LRPBXXZUPUBCAP-UHFFFAOYSA-N","?","25",,"a1/apparent","?","basic",4.1
"16258","O(CCN(C1(=CC=CC=C1))CCOCC)CC","CCOCCN(CCOCC)C1C=CC=CC=1","InChI=1S/C14H23NO2/c1-3-16-12-10-15(11-13-17-4-2)14-8-6-5-7-9-14/h5-9H,3-4,10-13H2,1-2H3","SLYUZDDMJZZSST-UHFFFAOYSA-N","?","24.9","spectrophotometric","a1/apparent","NH","basic",4.1
"10078","N1(=NC=CC(=C1C)C)","CC1C=CN=NC=1C","InChI=1S/C6H8N2/c1-5-3-4-7-8-6(5)2/h3-4H,1-2H3","PCFHSNOQBDATHE-UHFFFAOYSA-N","?","16","potentiometric","a/apparent","?","basic",4.1
"12950","OC1(=C(N)C=CC=C1N)","NC1C=CC=C(N)C=1O","InChI=1S/C6H8N2O/c7-4-2-1-3-5(8)6(4)9/h1-3,9H,7-8H2","XBQYRNRIHZDZPK-UHFFFAOYSA-N","?, ?","20","spectrophotometric","a2/apparent","?, ?","basic",4.1
"14475","O=CC1(=C(O)C(=NC=C1C)C)","CC1=NC=C(C)C(C=O)=C1O","InChI=1S/C8H9NO2/c1-5-3-9-6(2)8(11)7(5)4-10/h3-4,11H,1-2H3","SOYIPVHKLPDELX-UHFFFAOYSA-N","?","25","mean from 2","a1/apparent","?","basic",4.1
"11265","N1(=C(NC)C=NC=2(C1=CC=CC=2))","CNC1C=NC2=CC=CC=C2N=1","InChI=1S/C9H9N3/c1-10-9-6-11-7-4-2-3-5-8(7)12-9/h2-6H,1H3,(H,10,12)","ILHBRNLXKVETML-UHFFFAOYSA-N","?","25","potentiometric","a/apparent","?","basic",4.1
"14682","O(CCN(C1(=CC=CC=C1))CCOC)C","COCCN(CCOC)C1C=CC=CC=1","InChI=1S/C12H19NO2/c1-14-10-8-13(9-11-15-2)12-6-4-3-5-7-12/h3-7H,8-11H2,1-2H3","IOMDLUILHJBWSF-UHFFFAOYSA-N","?","24.9","spectrophotometric","a1/apparent","NH","basic",4.11