"Molecule name","OriginalSmiles","Canonical_QSARr","InChI_Code_QSARr","InChI Key_QSARr","Salt_Solvent (Concatenate)","temp","method","type","group","basicOrAcidic","pKa"
"10084","N1(N(CC=CC1)C)(C)","CN1CC=CCN1C","InChI=1S/C6H12N2/c1-7-5-3-4-6-8(7)2/h3-4H,5-6H2,1-2H3","YTOCHSMFDSTIKM-UHFFFAOYSA-N","?","25","potentiometric","a1/apparent","?","basic",5.7
"14953","N=3(C2(=C1(N=CC=CC1=C(C)C=C2C(C)=CC=3)))","CC1C=C2C(N=CC=C2C)=C2N=CC=CC=12","InChI=1S/C14H12N2/c1-9-5-7-16-14-12(9)8-10(2)11-4-3-6-15-13(11)14/h3-8H,1-2H3","SHQNVVAWBDPXSE-UHFFFAOYSA-N","?","25","potentiometric","a/apparent","?","basic",5.71
"15820","O=C(N)C1(=C2(C=CC=C1COCCOCC3(=CN=C(COCCOC2)N3)))","NC(=O)C1C2COCCOCC3=CN=C(COCCOCC=1C=CC=2)N3","InChI=1S/C18H23N3O5/c19-18(22)17-13-2-1-3-14(17)10-24-5-7-26-12-16-20-8-15(21-16)11-25-6-4-23-9-13/h1-3,8H,4-7,9-12H2,(H2,19,22)(H,20,21)","YOEADGUTVNDRBT-UHFFFAOYSA-N","?","25","potentiometric","a1/apparent","?","basic",5.72
"13952","O2(C=C(C1(=CC=NC=C1))C=C2)","C1OC=CC=1C1C=CN=CC=1","InChI=1S/C9H7NO/c1-4-10-5-2-8(1)9-3-6-11-7-9/h1-7H","TUAOCHMKNGTVCK-UHFFFAOYSA-N","?","25","spectrophotometric","a1/apparent","?","basic",5.72
"15008","O3(C(CN(CC1(=CC=CC=C1))CC2(OC2))C3)","C(C1C=CC=CC=1)N(CC1CO1)CC1CO1","InChI=1S/C13H17NO2/c1-2-4-11(5-3-1)6-14(7-12-9-15-12)8-13-10-16-13/h1-5,12-13H,6-10H2","ICXMVMOJRRHROE-UHFFFAOYSA-N","?","20","spectrophotometric","b1/apparent","NH%+&","basic",5.75
"16970","O=C([O-])CC(C1(=[NH+]C=CN1))C2(=NC=CN2)","OC(O)=CC(C1NC=CN=1)C1NC=CN=1","InChI=1S/C9H10N4O2/c14-7(15)5-6(8-10-1-2-11-8)9-12-3-4-13-9/h1-6,14-15H,(H,10,11)(H,12,13)","AERKCKJUJKBKSI-UHFFFAOYSA-N","?, ?","24.9","potentiometric","a2/apparent","NH, NH","basic",5.76
"16861","N1(=C(NC=C1CC=2(N=CNC=2))CC4(=NC(CC=3(NC=NC=3))=CN4))","C(C1=CN=CN1)C1=CNC(CC2NC=C(CC3=CNC=N3)N=2)=N1","InChI=1S/C15H16N8/c1(10-4-16-8-20-10)12-6-18-14(22-12)3-15-19-7-13(23-15)2-11-5-17-9-21-11/h4-9H,1-3H2,(H,16,20)(H,17,21)(H,18,22)(H,19,23)","BCFQAISFKUFSRD-UHFFFAOYSA-N","?, ?, ?, ?","24.85","potentiometric","a4/apparent","NH, NH, NH, NH","basic",5.789999999999999
"10408","ON=C(N)C(C)(C)C","CC(C)(C)C(N)N=O","InChI=1S/C5H12N2O/c1-5(2,3)4(6)7-8/h4H,6H2,1-3H3","XGTBEWLNCNCWCG-UHFFFAOYSA-N","?","20","potentiometric","a1/apparent","?","basic",5.8
"17848","N1(=CC(=CC=C1)C)","CC1C=NC=CC=1","InChI=1S/C6H7N/c1-6-3-2-4-7-5-6/h2-5H,1H3","ITQTTZVARXURQS-UHFFFAOYSA-N","?","25","mean from 15","a1/apparent","NH(1+)","basic",5.81
"13004","N1(=C(C=CC=C1)C(C)C)","CC(C)C1C=CC=CN=1","InChI=1S/C8H11N/c1-7(2)8-5-3-4-6-9-8/h3-7H,1-2H3","PFYPDUUXDADWKC-UHFFFAOYSA-N","?","25","spectrophotometric","a/thermodynamic","NHE+","basic",5.83
"14658","N1(=C(N=C(NCC)N=C1NCC)NCC)","CCNC1N=C(NCC)N=C(NCC)N=1","InChI=1S/C9H18N6/c1-4-10-7-13-8(11-5-2)15-9(14-7)12-6-3/h4-6H2,1-3H3,(H3,10,11,12,13,14,15)","LNCCBHFAHILMCT-UHFFFAOYSA-N","?","25","potentiometric","b/apparent","?","basic",5.84
"13949","OC2(=CC=1(C(=CN=CC=1)C=C2))","OC1=CC2=CC=NC=C2C=C1","InChI=1S/C9H7NO/c11-9-2-1-8-6-10-4-3-7(8)5-9/h1-6,11H","GPVPDRHTRGTSIH-UHFFFAOYSA-N","?","20","potentiometric","a1/apparent","?","basic",5.85
"14506","O(C1(=CC=C(N(C)C)C=C1))C","COC1C=CC(=CC=1)N(C)C","InChI=1S/C9H13NO/c1-10(2)8-4-6-9(11-3)7-5-8/h4-7H,1-3H3","ZTKDMNHEQMILPE-UHFFFAOYSA-N","?","20","mean from 2","a/thermodynamic","?","basic",5.86
"12048","O2(CCN(CC1(OC1))CC2)","C(C1CO1)N1CCOCC1","InChI=1S/C7H13NO2/c1-3-9-4-2-8(1)5-7-6-10-7/h7H,1-6H2","KKWQCCPQBCHJBZ-UHFFFAOYSA-N","?","20","spectrophotometric","b1/apparent","NH%+&","basic",5.88
"17537","ON=C(N)C","CC(N)N=O","InChI=1S/C2H6N2O/c1-2(3)4-5/h2H,3H2,1H3","DJTBGGJICAKURK-UHFFFAOYSA-N","?","22","mean from 2","a1/apparent","?","basic",5.9
"17478","N#CCCNN","NNCCC#N","InChI=1S/C3H7N3/c4-2-1-3-6-5/h6H,1,3,5H2","VIHRIIARIFUQLC-UHFFFAOYSA-N","?","25","potentiometric","a1/apparent","?","basic",5.91
"11743","O(C1(=CC=C(NC)C=C1))C","CNC1C=CC(=CC=1)OC","InChI=1S/C8H11NO/c1-9-7-3-5-8(10-2)6-4-7/h3-6,9H,1-2H3","JFXDIXYFXDOZIT-UHFFFAOYSA-N","?","25","spectrophotometric","a1/thermodynamic","?","basic",5.93
"11619","N1(=CC=C(C(C)(C)C)C=C1)","CC(C)(C)C1C=CN=CC=1","InChI=1S/C9H13N/c1-9(2,3)8-4-6-10-7-5-8/h4-7H,1-3H3","YSHMQTRICHYLGF-UHFFFAOYSA-N","?","25","mean from 4","a1/thermodynamic","?","basic",5.95
"17088","O=C(C1(=CC=CC=C1))CC2(=CC=NC=C2)","OC(=CC1C=CN=CC=1)C1C=CC=CC=1","InChI=1S/C13H11NO/c15-13(12-4-2-1-3-5-12)10-11-6-8-14-9-7-11/h1-10,15H","DUGBGIXHQNWLNJ-UHFFFAOYSA-N","?, ?, ?","25","spectrophotometric","b1/apparent","?, ?, ?","basic",5.963333333333333
"13731","N=3(C1(=C(C=C2(CCCCC2(=C1)))NC=3))","C1CCCC2=CC3NC=NC=3C=C21","InChI=1S/C11H12N2/c1-2-4-9-6-11-10(12-7-13-11)5-8(9)3-1/h5-7H,1-4H2,(H,12,13)","HPPTULNWMICSJI-UHFFFAOYSA-N","?","20","potentiometric","a1/apparent","?","basic",5.98
"16149","O(C2(=C(C(=N)C1(=CC=CC=C1))C=CC(=C2)O))C","COC1C=C(O)C=CC=1C(=N)C1C=CC=CC=1","InChI=1S/C14H13NO2/c1-17-13-9-11(16)7-8-12(13)14(15)10-5-3-2-4-6-10/h2-9,15-16H,1H3","HZZNIYJGFMGFRC-UHFFFAOYSA-N","?",,"potentiometric","b/apparent","?","basic",5.99
"13127","OC1(=CC=C(NC)C=C1)","CNC1C=CC(O)=CC=1","InChI=1S/C7H9NO/c1-8-6-2-4-7(9)5-3-6/h2-5,8-9H,1H3","ZFIQGRISGKSVAG-UHFFFAOYSA-N","?","25","potentiometric","b/thermodynamic","?","basic",6.0
"16446","O=[N+]([O-])C=2(C1(=C(NCCC[NH+](C)C)C(=CN=C1C=CC=2)C))","CC1=CN=C2C=CC=C(C2=C1NCCCN(C)C)[N+]([O-])=O","InChI=1S/C15H20N4O2/c1-11-10-17-12-6-4-7-13(19(20)21)14(12)15(11)16-8-5-9-18(2)3/h4,6-7,10H,5,8-9H2,1-3H3,(H,16,17)","ZWFOYPCDCYAMFX-UHFFFAOYSA-N","?","25","spectrophotometric","a1/apparent","?","basic",6.01
"11631","N(C1(=CC=CC=C1))(CC)C","CCN(C)C1C=CC=CC=1","InChI=1S/C9H13N/c1-3-10(2)9-7-5-4-6-8-9/h4-8H,3H2,1-2H3","PPHQUIPUBYPZLD-UHFFFAOYSA-N","?","22",,"a/thermodynamic","?","basic",6.02
"10848","OCCCCCC1(=CC=NC=C1)","OCCCCCC1C=CN=CC=1","InChI=1S/C10H15NO/c12-9-3-1-2-4-10-5-7-11-8-6-10/h5-8,12H,1-4,9H2","FOEXZUQNDHODBJ-UHFFFAOYSA-N","?","25","potentiometric","a1/apparent","?","basic",6.04
"13902","N2(=C(C1(CCCCC1))CCC2)","C1CCC(=N1)C1CCCCC1","InChI=1S/C10H17N/c1-2-5-9(6-3-1)10-7-4-8-11-10/h9H,1-8H2","GDDLMYQGDXSHRY-UHFFFAOYSA-N","?","25","potentiometric","b/apparent","?","basic",6.05
"14422","S(C(=N)C1(=CC=CC=C1))CC","CCSC(=N)C1C=CC=CC=1","InChI=1S/C9H11NS/c1-2-11-9(10)8-6-4-3-5-7-8/h3-7,10H,2H2,1H3","TTWNLSKLEVOYIK-UHFFFAOYSA-N","?","25",,"b/apparent","?","basic",6.05
"15518","N=3(C2(=C1(N=CC(C)=CC1=C(C)C=C2C(C)=C(C=3)C)))","CC1C=NC2=C3N=CC(C)=CC3=C(C)C=C2C=1C","InChI=1S/C16H16N2/c1-9-5-13-10(2)6-14-12(4)11(3)8-18-16(14)15(13)17-7-9/h5-8H,1-4H3","TZZHEIYMWLBKIJ-UHFFFAOYSA-N","?","25","potentiometric","a/apparent","?","basic",6.07
"12921","S1(C(=NC=C1C)N(C)C)","CC1=CN=C(S1)N(C)C","InChI=1S/C6H10N2S/c1-5-4-7-6(9-5)8(2)3/h4H,1-3H3","PJAOORCTPZQZPX-UHFFFAOYSA-N","?","25","spectrophotometric","a1/thermodynamic","?","basic",6.08
"16298","O=C2(C1(=C([O-])N=CN=C1C(=O)C3(=C2N=CN3C)))","CN1C=NC2=C1C(=O)C1N=CN=C(O)C=1C2=O","InChI=1S/C10H6N4O3/c1-14-3-13-6-7(14)9(16)5-4(8(6)15)10(17)12-2-11-5/h2-3H,1H3,(H,11,12,17)","JSJVAPVAZOEPQV-UHFFFAOYSA-N","?","30","spectrophotometric","a1/apparent","?","basic",6.09
"15750","O1(C(C(O)C(O)C(C1CN2(CCOCC2))O)CO)","OCC1OC(CN2CCOCC2)C(O)C(O)C1O","InChI=1S/C11H21NO6/c13-6-8-10(15)11(16)9(14)7(18-8)5-12-1-3-17-4-2-12/h7-11,13-16H,1-6H2","WJDJYEOSQPAPSF-UHFFFAOYSA-N","?","25","potentiometric","a1/apparent","N","basic",6.1
"15229","O3(CCN(C(CC(C#N)(C1(=CC=CC=C1))C2(=CC=CC=C2))C)CC3)","CC(CC(C#N)(C1C=CC=CC=1)C1C=CC=CC=1)N1CCOCC1","InChI=1S/C21H24N2O/c1-18(23-12-14-24-15-13-23)16-21(17-22,19-8-4-2-5-9-19)20-10-6-3-7-11-20/h2-11,18H,12-16H2,1H3","AVTGNCPHDBVRPD-UHFFFAOYSA-N","?","25","potentiometric","a/apparent","?","basic",6.1
"13587","O=C(C(=NO)CN1(CCOCC1))C","C=C(O)C(CN1CCOCC1)N=O","InChI=1S/C8H14N2O3/c1-7(11)8(9-12)6-10-2-4-13-5-3-10/h8,11H,1-6H2","BBQYGWJXXFMPDW-UHFFFAOYSA-N","?",,"potentiometric","a1/apparent","?","basic",6.1
"17005","O(C2(=C1(N=C(C)N(C1=C(OC)C=C2)C)))C","CC1=NC2C(=C(C=CC=2OC)OC)N1C","InChI=1S/C11H14N2O2/c1-7-12-10-8(14-3)5-6-9(15-4)11(10)13(7)2/h5-6H,1-4H3","LGYSNYZUVLTOHA-UHFFFAOYSA-N","?","30","spectrophotometric","a1/apparent","N(1+)-H","basic",6.12
"11627","N(C1(=C(C=CC=C1C)C))C","CC1C=CC=C(C)C=1NC","InChI=1S/C9H13N/c1-7-5-4-6-8(2)9(7)10-3/h4-6,10H,1-3H3","NLGKRVNANIZGNI-UHFFFAOYSA-N","?","25","potentiometric","a/apparent","?","basic",6.12
"14962","N=3(C2(=C1(N=C(C=CC1=CC=C2C=CC=3C)C)))","CC1C=CC2=CC=C3C=CC(C)=NC3=C2N=1","InChI=1S/C14H12N2/c1-9-3-5-11-7-8-12-6-4-10(2)16-14(12)13(11)15-9/h3-8H,1-2H3","IYRGXJIJGHOCFS-UHFFFAOYSA-N","?","25","potentiometric","a1/apparent","?","basic",6.15
"10192","N1(=CC(=CC(=C1)C)C)","CC1=CN=CC(C)=C1","InChI=1S/C7H9N/c1-6-3-7(2)5-8-4-6/h3-5H,1-2H3","HWWYDZCSSYKIAD-UHFFFAOYSA-N","?","25","mean from 5","a1/apparent","?","basic",6.15
"15244","S(=O)(=O)(NCCN1(CCOCC1))C2(=C(OC)C(OC)=C(OC)C=C2)","COC1C(OC)=C(C=CC=1OC)S(=O)(=O)NCCN1CCOCC1","InChI=1S/C15H24N2O6S/c1-20-12-4-5-13(15(22-3)14(12)21-2)24(18,19)16-6-7-17-8-10-23-11-9-17/h4-5,16H,6-11H2,1-3H3","GAUPAAGWGWCMBV-UHFFFAOYSA-N","?","20","potentiometric","a1/thermodynamic","amino","basic",6.16
"11162","O2(C(CN(CC=C)CC1(OC1))C2)","C=CCN(CC1CO1)CC1CO1","InChI=1S/C9H15NO2/c1-2-3-10(4-8-6-11-8)5-9-7-12-9/h2,8-9H,1,3-7H2","QFTYUIDMHYIRNY-UHFFFAOYSA-N","?","20","potentiometric","b1/apparent","NH%+&","basic",6.16
"15028","N=2(C=1(C(=CC(N)=CC=1)C=C3(C=2C=CC(=C3)N)))","NC1=CC2=CC3=CC(N)=CC=C3N=C2C=C1","InChI=1S/C13H11N3/c14-10-1-3-12-8(6-10)5-9-7-11(15)2-4-13(9)16-12/h1-7H,14-15H2","OYZJQXIQTJRRCG-UHFFFAOYSA-N","?","20","spectrophotometric","a/apparent","?","basic",6.18
"13605","N(C1(=CC=CC=C1))(C(C)C)C(C)C","CC(C)N(C(C)C)C1C=CC=CC=1","InChI=1S/C12H19N/c1-10(2)13(11(3)4)12-8-6-5-7-9-12/h5-11H,1-4H3","OVSARSKQWCLSJT-UHFFFAOYSA-N","?","25","mean from 2","a1/thermodynamic","NH+","basic",6.19
"11194","O(C2(=CC1(=C(NC(C1)C)C=C2)))C","COC1=CC2CC(C)NC=2C=C1","InChI=1S/C10H13NO/c1-7-5-8-6-9(12-2)3-4-10(8)11-7/h3-4,6-7,11H,5H2,1-2H3","MKZAAOOSZBRZEP-UHFFFAOYSA-N","?","20","spectrophotometric","a1/apparent","N-H","basic",6.2
"15214","O=[N+]([O-])C=3(C2(=C(NCCC[NH+](C)C)C=1(C(=CC=CC=1)N=C2C=CC=3)))","CN(C)CCCNC1=C2C(=CC=CC2=NC2=CC=CC=C21)[N+]([O-])=O","InChI=1S/C18H20N4O2/c1-21(2)12-6-11-19-18-13-7-3-4-8-14(13)20-15-9-5-10-16(17(15)18)22(23)24/h3-5,7-10H,6,11-12H2,1-2H3,(H,19,20)","YMVWGSQGCWCDGW-UHFFFAOYSA-N","?","25","mean from 2","a1/apparent","?","basic",6.2
"13825","N=2(C1(=C(C=CC=C1)NC=2CC))","CCC1NC2C=CC=CC=2N=1","InChI=1S/C9H10N2/c1-2-9-10-7-5-3-4-6-8(7)11-9/h3-6H,2H2,1H3,(H,10,11)","QHCCOYAKYCWDOJ-UHFFFAOYSA-N","?","25","potentiometric","a/apparent","?","basic",6.2
"16148","O=C(C(C1(=CC=CC=C1))CN2(CCOCC2))C","C=C(O)C(CN1CCOCC1)C1C=CC=CC=1","InChI=1S/C14H19NO2/c1-12(16)14(13-5-3-2-4-6-13)11-15-7-9-17-10-8-15/h2-6,14,16H,1,7-11H2","CIGXPSXFCGSPSD-UHFFFAOYSA-N","?","20","potentiometric","a/apparent","?","basic",6.23
"16057","N4(=C2(C=1(N(C=3(C=CC(=CC=3(C=1CCC2))C))C=C4)))","CC1=CC2=C(C=C1)N1C=CN=C3CCCC2=C13","InChI=1S/C15H14N2/c1-10-5-6-14-12(9-10)11-3-2-4-13-15(11)17(14)8-7-16-13/h5-9H,2-4H2,1H3","ZHTWYYQXWNZIMN-UHFFFAOYSA-N","?","25","spectrophotometric","b1/apparent","H(1+)","basic",6.24
"14502","S1(C(NC(C1)C(=O)[O-])CCC)","CCCC1N=C(CS1)C(O)O","InChI=1S/C7H13NO2S/c1-2-3-6-8-5(4-11-6)7(9)10/h6-7,9-10H,2-4H2,1H3","BBEPZSBPPMKNSB-UHFFFAOYSA-N","?","25","potentiometric","b1/apparent","=NH2%+&","basic",6.25
"11553","O=C([O-])C=CC=1(N=CNC=1)","OC(=O)C=CC1=CNC=N1","InChI=1S/C6H6N2O2/c9-6(10)2-1-5-3-7-4-8-5/h1-4H,(H,7,8)(H,9,10)","LOIYMIARKYCTBW-UHFFFAOYSA-N","?, ?","20","potentiometric","a2/apparent","?, ?","basic",6.275
"16385","O=[N+]([O-])C=3(C=1(C(=NC2(=CC=CC=C2(C=1NCCC[NH+](C)C)))C(C)=CC=3))","CC1=CC=C(C2C1=NC1C=CC=CC=1C=2NCCCN(C)C)[N+]([O-])=O","InChI=1S/C19H22N4O2/c1-13-9-10-16(23(24)25)17-18(13)21-15-8-5-4-7-14(15)19(17)20-11-6-12-22(2)3/h4-5,7-10H,6,11-12H2,1-3H3,(H,20,21)","OTZKWZWFTBATFL-UHFFFAOYSA-N","?","25","spectrophotometric","a1/apparent","?","basic",6.29
"11999","N=2(C1(=C(C=CC=C1)NC=2C))","CC1NC2C=CC=CC=2N=1","InChI=1S/C8H8N2/c1-6-9-7-4-2-3-5-8(7)10-6/h2-5H,1H3,(H,9,10)","LDZYRENCLPUXAX-UHFFFAOYSA-N","?","25","mean from 3","a1/apparent","?","basic",6.3
"17596","S1(CNCC1)","C1NCCS1","InChI=1S/C3H7NS/c1-2-5-3-4-1/h4H,1-3H2","OGYGFUAIIOPWQD-UHFFFAOYSA-N","?",,"potentiometric","a/apparent","?","basic",6.31
"15531","S2(C1(=C(C=C(C(=O)[O-])C=C1)C=C2CN3(C=NC=C3)))","OC(=O)C1C=C2C=C(CN3C=NC=C3)SC2=CC=1","InChI=1S/C13H10N2O2S/c16-13(17)9-1-2-12-10(5-9)6-11(18-12)7-15-4-3-14-8-15/h1-6,8H,7H2,(H,16,17)","ANJKECNGKIVNCX-UHFFFAOYSA-N","?","25",,"a1/apparent","NH","basic",6.34
"16711","S1(C(=C(C)C3(=C1C=C(CN2(C=NC=C2))C=C3))C(=O)[O-])","CC1=C(SC2=CC(CN3C=NC=C3)=CC=C21)C(O)=O","InChI=1S/C14H12N2O2S/c1-9-11-3-2-10(7-16-5-4-15-8-16)6-12(11)19-13(9)14(17)18/h2-6,8H,7H2,1H3,(H,17,18)","HXVORKFEIWPHNV-UHFFFAOYSA-N","?","25",,"a1/apparent","NH","basic",6.35
"16344","O=[N+]([O-])C3(=CC1(=C(NC2(=C1CCN=C2C))C=C3))","CC1=NCCC2C3C=C(C=CC=3NC=21)[N+]([O-])=O","InChI=1S/C12H11N3O2/c1-7-12-9(4-5-13-7)10-6-8(15(16)17)2-3-11(10)14-12/h2-3,6,14H,4-5H2,1H3","MVOPEQANCBUNRG-UHFFFAOYSA-N","?","25","spectrophotometric","b1/apparent","N-7","basic",6.37
"17833","OCC=1(N=CNC=1)","OCC1=CNC=N1","InChI=1S/C4H6N2O/c7-2-4-1-5-3-6-4/h1,3,7H,2H2,(H,5,6)","QDYTUZCWBJRHKK-UHFFFAOYSA-N","?","25","potentiometric","a/thermodynamic","?","basic",6.38
"15380","O=[N+]([O-])C=2(C=1(C(=NC=CC=1NCCC[NH+](C)C)C=CC=2))","CN(C)CCCNC1C=CN=C2C=CC=C(C=12)[N+]([O-])=O","InChI=1S/C14H18N4O2/c1-17(2)10-4-8-15-12-7-9-16-11-5-3-6-13(14(11)12)18(19)20/h3,5-7,9H,4,8,10H2,1-2H3,(H,15,16)","OYBQBXGOFWWPTH-UHFFFAOYSA-N","?","25","spectrophotometric","a1/apparent","?","basic",6.39
"15652","N4(=CC=1(C(=C(C=2(NC3(=C(C=2(C=1))C=NC=C3)))C)C=C4))","CC1C2NC3C=CN=CC=3C=2C=C2C=NC=CC2=1","InChI=1S/C15H11N3/c1-9-11-2-4-16-7-10(11)6-12-13-8-17-5-3-14(13)18-15(9)12/h2-8,18H,1H3","BPWZLDGBHXYZGS-UHFFFAOYSA-N","?, ?","25","spectrophotometric","a2/apparent","?, ?","basic",6.4
"14664","N(C1(=CC=CC=C1))(CCCC)CCCC","CCCCN(CCCC)C1C=CC=CC=1","InChI=1S/C14H23N/c1-3-5-12-15(13-6-4-2)14-10-8-7-9-11-14/h7-11H,3-6,12-13H2,1-2H3","FZPXKEPZZOEPGX-UHFFFAOYSA-N","?","24","mean from 2","a1/apparent","?","basic",6.41
"11180","O(C=1(C=2(C(N=CC=1)=CC=CC=2)))C","COC1=CC=NC2=CC=CC=C12","InChI=1S/C10H9NO/c1-12-10-6-7-11-9-5-3-2-4-8(9)10/h2-7H,1H3","RWTCJCUERNMVEZ-UHFFFAOYSA-N","?","30","spectrophotometric","a/apparent","(NH%+&","basic",6.45
"12046","O2(C(CN(CC1(OC1))C)C2)","CN(CC1CO1)CC1CO1","InChI=1S/C7H13NO2/c1-8(2-6-4-9-6)3-7-5-10-7/h6-7H,2-5H2,1H3","LNZYGCIEXZSTCV-UHFFFAOYSA-N","?","20","potentiometric","b1/apparent","NH%+&","basic",6.45
"10757","N(C1(=C(C=CC=C1)C))C(C)(C)C","CC1C=CC=CC=1NC(C)(C)C","InChI=1S/C11H17N/c1-9-7-5-6-8-10(9)12-11(2,3)4/h5-8,12H,1-4H3","WXKZVDJCDSIHKG-UHFFFAOYSA-N","?","25","potentiometric","a/apparent","?","basic",6.49
"15522","N=3(C2(=C1(N=C(C=C(C1=CC=C2C(C)=CC=3C)C)C)))","CC1C=C(C)C2=CC=C3C(N=C(C)C=C3C)=C2N=1","InChI=1S/C16H16N2/c1-9-7-11(3)17-15-13(9)5-6-14-10(2)8-12(4)18-16(14)15/h5-8H,1-4H3","XLLDGHKSXHVKJV-UHFFFAOYSA-N","?","25","potentiometric","a/apparent","?","basic",6.5
"10193","N1(=CC(=C(C)C=C1)C)","CC1C=NC=CC=1C","InChI=1S/C7H9N/c1-6-3-4-8-5-7(6)2/h3-5H,1-2H3","NURQLCJSMXZBPC-UHFFFAOYSA-N","?","25","mean from 4","b1/apparent","NH(1+)","basic",6.53
"15996","N2(=C(C=1(NC=3(C=CC=CC=3(C=1C=C2))))C)","CC1=NC=CC2=C1NC1C=CC=CC2=1","InChI=1S/C12H10N2/c1-8-12-10(6-7-13-8)9-4-2-3-5-11(9)14-12/h2-7,14H,1H3","PSFDQSOCUJVVGF-UHFFFAOYSA-N","?","25","spectrophotometric","b1/apparent","N-7","basic",6.55
"13659","O=C([O-])C1(=NC=C(CC)C(=C1)CC)","CCC1C=C(N=CC=1CC)C(O)=O","InChI=1S/C10H13NO2/c1-3-7-5-9(10(12)13)11-6-8(7)4-2/h5-6H,3-4H2,1-2H3,(H,12,13)","LYKNWGHUCYPLOC-UHFFFAOYSA-N","?",,"potentiometric","a/apparent","?","basic",6.58
"11559","O=C([O-])C1(=C(N=CC=C1)N)","NC1=NC=CC=C1C(O)=O","InChI=1S/C6H6N2O2/c7-5-4(6(9)10)2-1-3-8-5/h1-3H,(H2,7,8)(H,9,10)","KPIVDNYJNOPGBE-UHFFFAOYSA-N","?","25","potentiometric","b/apparent","?","basic",6.59
"16433","OC(CN(CC(O)CC)CCCCCCCCCC)CC","CCCCCCCCCCN(CC(O)CC)CC(O)CC","InChI=1S/C18H39NO2/c1-4-7-8-9-10-11-12-13-14-19(15-17(20)5-2)16-18(21)6-3/h17-18,20-21H,4-16H2,1-3H3","RRFWZFGPIGGJGQ-UHFFFAOYSA-N","?","20","potentiometric","a1/apparent","-NH3%+&","basic",6.6
"12038","N1(=C2(C(=CC=C1)CCCC2))","C1CCCC2=CC=CN=C21","InChI=1S/C9H11N/c1-2-6-9-8(4-1)5-3-7-10-9/h3,5,7H,1-2,4,6H2","YQDGQEKUTLYWJU-UHFFFAOYSA-N","?","20","potentiometric","a1/apparent","?","basic",6.6
"17159","N=3(C1(=C(C=C2(CCCCC2(=C1)))NC=3CC))","CCC1NC2C=C3CCCCC3=CC=2N=1","InChI=1S/C13H16N2/c1-2-13-14-11-7-9-5-3-4-6-10(9)8-12(11)15-13/h7-8H,2-6H2,1H3,(H,14,15)","YWNPBMAEAGLORY-UHFFFAOYSA-N","?","20","spectrophotometric","a/apparent","?","basic",6.64
"11322","N(C(C#C)(C)C)(C(C#C)(C)C)C","CN(C(C)(C)C#C)C(C)(C)C#C","InChI=1S/C11H17N/c1-8-10(3,4)12(7)11(5,6)9-2/h1-2H,3-7H3","RLTYJHXKULGJJW-UHFFFAOYSA-N","?","25","potentiometric","a1/apparent","?","basic",6.65
"13809","N=2(C=1(C(=CC=C(C=1)N)C=CC=2))","NC1C=C2N=CC=CC2=CC=1","InChI=1S/C9H8N2/c10-8-4-3-7-2-1-5-11-9(7)6-8/h1-6H,10H2","RZAUIOKDXQWSQE-UHFFFAOYSA-N","?","20","potentiometric","a/apparent","?","basic",6.65
"13756","N1(=CNC(=C1)CC=2(NC=NC=2))","C(C1=CN=CN1)C1=CN=CN1","InChI=1S/C7H8N4/c1(6-2-8-4-10-6)7-3-9-5-11-7/h2-5H,1H2,(H,8,10)(H,9,11)","OPYSJMNXDRFQHK-UHFFFAOYSA-N","?, ?","25","potentiometric","a1/apparent","?, ?","basic",6.66
"17209","N2(=NC=1(C(=CC=CC=1)C=3(C2=CC=C(C=3)N)))","NC1C=C2C3=CC=CC=C3N=NC2=CC=1","InChI=1S/C12H9N3/c13-8-5-6-12-10(7-8)9-3-1-2-4-11(9)14-15-12/h1-7H,13H2","GOSUGWDGAOERRQ-UHFFFAOYSA-N","?","20","spectrophotometric","a/apparent","?","basic",6.68
"15163","S1(C(=NCC)N(CC)N=C1C2(=CC=CC=C2))","CCN1N=C(SC1=NCC)C1C=CC=CC=1","InChI=1S/C12H15N3S/c1-3-13-12-15(4-2)14-11(16-12)10-8-6-5-7-9-10/h5-9H,3-4H2,1-2H3","XPVRYEMRPOJNIW-UHFFFAOYSA-N","?",,"spectrophotometric","b/apparent","?","basic",6.7
"15804","FC1(=C(F)C=CC=C1C(C3(=CC=2(N(C(N)=NC=2C=C3)C(C)C)))=CC(=O)N)","CC(C)N1C2C=C(C=CC=2N=C1N)C(=CC(N)=O)C1=CC=CC(F)=C1F","InChI=1S/C19H18F2N4O/c1-10(2)25-16-8-11(6-7-15(16)24-19(25)23)13(9-17(22)26)12-4-3-5-14(20)18(12)21/h3-10H,1-2H3,(H2,22,26)(H2,23,24)","AKKDIOKNTHHIJE-UHFFFAOYSA-N","?","25","potentiometric","a1/apparent","?","basic",6.7
"14298","N#CCC(N)C1(=CC=CC=C1)","NC(CC#N)C1C=CC=CC=1","InChI=1S/C9H10N2/c10-7-6-9(11)8-4-2-1-3-5-8/h1-5,9H,6,11H2","YHBWEFKGUHZLOA-UHFFFAOYSA-N","?","20","potentiometric","a1/apparent","?","basic",6.7
"16447","O=[N+]([O-])C=2(C=1(C(=NC=CC=1NCCCC[NH+](C)C)C=CC=2))","CN(C)CCCCNC1C=CN=C2C=CC=C(C=12)[N+]([O-])=O","InChI=1S/C15H20N4O2/c1-18(2)11-4-3-9-16-13-8-10-17-12-6-5-7-14(15(12)13)19(20)21/h5-8,10H,3-4,9,11H2,1-2H3,(H,16,17)","OSWHQYWCZGPVLJ-UHFFFAOYSA-N","?","25","spectrophotometric","a1/apparent","?","basic",6.71
"12268","O=[N+]([O-])C1(=CC=C(N=CN(C)C)C=C1)","CN(C)C=NC1C=CC(=CC=1)[N+]([O-])=O","InChI=1S/C9H11N3O2/c1-11(2)7-10-8-3-5-9(6-4-8)12(13)14/h3-7H,1-2H3","VBLAVCCSDMDOCP-UHFFFAOYSA-N","?","25","potentiometric","a1/apparent","N=C-H","basic",6.71
"14970","ClC=1(C=3(C(N=C2(C=1C=CC=C2))=CC(N)=CC=3))","NC1C=C2N=C3C=CC=CC3=C(Cl)C2=CC=1","InChI=1S/C13H9ClN2/c14-13-9-3-1-2-4-11(9)16-12-7-8(15)5-6-10(12)13/h1-7H,15H2","VUZMIFMWXDKGLV-UHFFFAOYSA-N","?","20","spectrophotometric","a/apparent","?","basic",6.74
"15584","O(C3(=C(C=1(NC2(=NC=CN2(C=1))))C=CC(=C3)OC))C","COC1C=C(C=CC=1C1=CN2C=CN=C2N1)OC","InChI=1S/C13H13N3O2/c1-17-9-3-4-10(12(7-9)18-2)11-8-16-6-5-14-13(16)15-11/h3-8H,1-2H3,(H,14,15)","LMHCKZHSMROQMN-UHFFFAOYSA-N","?","25","spectrophotometric","a1/apparent","?","basic",6.76
"16403","P(C1(=NC=C(N1)CCO))(C2(=NC=C(N2)CCO))C3(=NC=C(N3)CCO)","OCCC1=CN=C(N1)P(C1NC(CCO)=CN=1)C1NC(CCO)=CN=1","InChI=1S/C15H21N6O3P/c22-4-1-10-7-16-13(19-10)25(14-17-8-11(20-14)2-5-23)15-18-9-12(21-15)3-6-24/h7-9,22-24H,1-6H2,(H,16,19)(H,17,20)(H,18,21)","RPTTYHXIZKDXHI-UHFFFAOYSA-N","?, ?, ?","18","potentiometric","a3/apparent","H, H, H","basic",6.763333333333332
"10215","N1(=C(C=C(C)C=C1)C)","CC1=CC(C)=NC=C1","InChI=1S/C7H9N/c1-6-3-4-8-7(2)5-6/h3-5H,1-2H3","JYYNAJVZFGKDEQ-UHFFFAOYSA-N","?","25","mean from 4","a1/apparent","?","basic",6.77