"Molecule name","OriginalSmiles","Canonical_QSARr","InChI_Code_QSARr","InChI Key_QSARr","Salt_Solvent (Concatenate)","temp","method","type","group","basicOrAcidic","pKa"
"17027","O=C(NC1(=CC=NC=C1))C2(=CC=CC=C2)","O=C(NC1C=CN=CC=1)C1C=CC=CC=1","InChI=1S/C12H10N2O/c15-12(10-4-2-1-3-5-10)14-11-6-8-13-9-7-11/h1-9H,(H,13,14,15)","PNWVOLKZHJEWQU-UHFFFAOYSA-N","?",,"potentiometric","a/apparent","?","basic",5.32
"12381","N2(=C(C1(=NC=CC(=C1)C))C=C(C)C=C2)","CC1=CC(=NC=C1)C1C=C(C)C=CN=1","InChI=1S/C12H12N2/c1-9-3-5-13-11(7-9)12-8-10(2)4-6-14-12/h3-8H,1-2H3","NBPGPQJFYXNFKN-UHFFFAOYSA-N","?","25","potentiometric","a/apparent","?","basic",5.32
"16917","O=C([O-])C3(OC(OC2(=CC1(=NC=CC=C1C=C2)))C(O)C(C3O)O)","OC(O)=C1OC(OC2C=C3N=CC=CC3=CC=2)C(O)C(O)C1O","InChI=1S/C15H15NO7/c17-10-11(18)13(14(20)21)23-15(12(10)19)22-8-4-3-7-2-1-5-16-9(7)6-8/h1-6,10-12,15,17-21H","PEJKFTZTOBJYSA-UHFFFAOYSA-N","?","22","mean from 2","a2/apparent","?","basic",5.32
"11639","N(C1(=CC(=CC=C1)C))(C)C","CC1C=C(C=CC=1)N(C)C","InChI=1S/C9H13N/c1-8-5-4-6-9(7-8)10(2)3/h4-7H,1-3H3","CWOMTHDOJCARBY-UHFFFAOYSA-N","?","25","mean from 3","apparent","?","basic",5.32
"10716","O=C(N)CCCC1(=CN=CC=C1)","N=C(O)CCCC1C=NC=CC=1","InChI=1S/C9H12N2O/c10-9(12)5-1-3-8-4-2-6-11-7-8/h2,4,6-7H,1,3,5H2,(H2,10,12)","DWRCZVLVASKQMP-UHFFFAOYSA-N","?","25","potentiometric","a1/apparent","?","basic",5.33
"13947","O=C1(N2(C(CC(C1)CC2)(C)C))","CC1(C)CC2CCN1C(O)=C2","InChI=1S/C9H15NO/c1-9(2)6-7-3-4-10(9)8(11)5-7/h5,7,11H,3-4,6H2,1-2H3","RKVFWDATJCTFTN-UHFFFAOYSA-N","?","21","potentiometric","a/apparent","NH%+&","basic",5.33
"12472","N(C1(=C(C=CC=C1)C))C2(CCCCC2)","CC1C=CC=CC=1NC1CCCCC1","InChI=1S/C13H19N/c1-11-7-5-6-10-13(11)14-12-8-3-2-4-9-12/h5-7,10,12,14H,2-4,8-9H2,1H3","QOFLOIOTQFYZFB-UHFFFAOYSA-N","?","25","potentiometric","a/apparent","?","basic",5.34
"16301","N=3(C2(=C1(N=CC=CC1=C(C)C(=C2C=C(C=3)C)C)))","CC1=C2C=CC=NC2=C2N=CC(C)=CC2=C1C","InChI=1S/C15H14N2/c1-9-7-13-11(3)10(2)12-5-4-6-16-14(12)15(13)17-8-9/h4-8H,1-3H3","FDWKXPSHJXAKOI-UHFFFAOYSA-N","?","25","potentiometric","a/apparent","?","basic",5.34
"14764","O(C=1(C=3(C(N=CC=1)=C2(N=CC=C(C2=CC=3)OC4(=CC=CC=C4)))))C5(=CC=CC=C5)","C1=CC=CC=C1OC1=CC=NC2=C3N=CC=C(OC4C=CC=CC=4)C3=CC=C12","InChI=1S/C24H16N2O2/c1-3-7-17(8-4-1)27-21-13-15-25-23-19(21)11-12-20-22(14-16-26-24(20)23)28-18-9-5-2-6-10-18/h1-16H","OYAHFWUSCISSRJ-UHFFFAOYSA-N","?","25","potentiometric","a/apparent","?","basic",5.34
"17203","OC2(=CC1(=C3(C(=NC=C1C=C2)C=CC=C3)))","OC1=CC2=C3C=CC=CC3=NC=C2C=C1","InChI=1S/C13H9NO/c15-10-6-5-9-8-14-13-4-2-1-3-11(13)12(9)7-10/h1-8,15H","KKGWOQXJGQRAPQ-UHFFFAOYSA-N","?","20","spectrophotometric","a1/apparent","?","basic",5.35
"16442","O=[N+]([O-])C2(=C(NCCC[NH+](C)C)C=1(C(=CC=CC=1)N=C2C))","CC1N=C2C=CC=CC2=C(NCCCN(C)C)C=1[N+]([O-])=O","InChI=1S/C15H20N4O2/c1-11-15(19(20)21)14(16-9-6-10-18(2)3)12-7-4-5-8-13(12)17-11/h4-5,7-8H,6,9-10H2,1-3H3,(H,16,17)","VPWOHROYLJHIEB-UHFFFAOYSA-N","?","25","spectrophotometric","a1/apparent","?","basic",5.35
"13107","O(C1(=CC=C(N)C=C1))C","COC1C=CC(N)=CC=1","InChI=1S/C7H9NO/c1-9-7-4-2-6(8)3-5-7/h2-5H,8H2,1H3","BHAAPTBBJKJZER-UHFFFAOYSA-N","?","23","mean from 12","b1/apparent","-NH3(1+)","basic",5.35
"17084","O=C(C1(=CC=CC=C1))CC2(=CN=CC=C2)","OC(=CC1=CN=CC=C1)C1C=CC=CC=1","InChI=1S/C13H11NO/c15-13(12-6-2-1-3-7-12)9-11-5-4-8-14-10-11/h1-10,15H","ILZNWGULWSSLKT-UHFFFAOYSA-N","?, ?","25","spectrophotometric","b1/apparent","?, ?","basic",5.355
"17166","N=3(C2(=C1(N=CC=CC1=CC=C2C=CC=3C)))","CC1C=CC2=CC=C3C=CC=NC3=C2N=1","InChI=1S/C13H10N2/c1-9-4-5-11-7-6-10-3-2-8-14-12(10)13(11)15-9/h2-8H,1H3","LQZDYPHFVGRHKD-UHFFFAOYSA-N","?","24","mean from 2","a/apparent","?","basic",5.36
"15858","S(=O)(C3(=CC(OC)=C(C=1(N=C2(C(=NC=CN2(C=1))NC)))C=C3))C","CS(=O)C1=CC(OC)=C(C=C1)C1=CN2C=CN=C(NC)C2=N1","InChI=1S/C15H16N4O2S/c1-16-14-15-18-12(9-19(15)7-6-17-14)11-5-4-10(22(3)20)8-13(11)21-2/h4-9H,1-3H3,(H,16,17)","WKMYBTLZXXWHRH-UHFFFAOYSA-N","?","25","spectrophotometric","a1/apparent","?","basic",5.36
"13011","N(C1(=CC=C(C)C=C1))C","CC1C=CC(=CC=1)NC","InChI=1S/C8H11N/c1-7-3-5-8(9-2)6-4-7/h3-6,9H,1-2H3","QCIFLGSATTWUQJ-UHFFFAOYSA-N","?","23","potentiometric","a/thermodynamic","?","basic",5.36
"11499","N1(=NC(=C(C)C(=C1C)C)C)","CC1N=NC(C)=C(C)C=1C","InChI=1S/C8H12N2/c1-5-6(2)8(4)10-9-7(5)3/h1-4H3","GHAPXTSQLKUQLE-UHFFFAOYSA-N","?","16.5","potentiometric","a/apparent","?","basic",5.36
"13813","N2(=NC1(=C(CCC1)C(=C2C)C))","CC1N=NC2CCCC=2C=1C","InChI=1S/C9H12N2/c1-6-7(2)10-11-9-5-3-4-8(6)9/h3-5H2,1-2H3","YTEIFKJRGDTWPB-UHFFFAOYSA-N","?","17","potentiometric","a/apparent","?","basic",5.36
"17245","N#CCN","NCC#N","InChI=1S/C2H4N2/c3-1-2-4/h1,3H2","DFNYGALUNNFWKJ-UHFFFAOYSA-N","?","26","mean from 4","a1/apparent","?","basic",5.37
"17591","N1(C(C)(C)C1)","CC1(C)CN1","InChI=1S/C4H9N/c1-4(2)3-5-4/h5H,3H2,1-2H3","FGRJGEWVJCCOJJ-UHFFFAOYSA-N","?","23","mean from 2","b/apparent","?","basic",5.37
"13109","OCCC1(=NC=CC=C1)","OCCC1C=CC=CN=1","InChI=1S/C7H9NO/c9-6-4-7-3-1-2-5-8-7/h1-3,5,9H,4,6H2","BXGYBSJAZFGIPX-UHFFFAOYSA-N","?","25","potentiometric","a1/apparent","?","basic",5.37
"15354","S1(C3(=C(NC2(=C1C=C(N(C)C)C=C2))C=CC(=C3)N(C)C))","CN(C)C1=CC2SC3C=C(C=CC=3NC=2C=C1)N(C)C","InChI=1S/C16H19N3S/c1-18(2)11-5-7-13-15(9-11)20-16-10-12(19(3)4)6-8-14(16)17-13/h5-10,17H,1-4H3","QTWZICCBKBYHDM-UHFFFAOYSA-N","?, ?","20","mean from 2","a2/thermodynamic","?, ?","basic",5.4
"13039","S(CC1(=NC=CC=C1))C","CSCC1C=CC=CN=1","InChI=1S/C7H9NS/c1-9-6-7-4-2-3-5-8-7/h2-5H,6H2,1H3","KWXDPVBKJYKQIM-UHFFFAOYSA-N","?","25","spectrophotometric","a1/apparent","?","basic",5.4
"14441","OC1(=C(N=CC(=C1C)CO)C)","CC1N=CC(CO)=C(C)C=1O","InChI=1S/C8H11NO2/c1-5-7(4-10)3-9-6(2)8(5)11/h3,10-11H,4H2,1-2H3","KKOWAYISKWGDBG-UHFFFAOYSA-N","?","17","spectrophotometric","a1/apparent","?","basic",5.4
"11035","N1(=NC(=C(C)C2(=C1CCCC2))C)","CC1N=NC2CCCCC=2C=1C","InChI=1S/C10H14N2/c1-7-8(2)11-12-10-6-4-3-5-9(7)10/h3-6H2,1-2H3","WSUGNZPINSWXPV-UHFFFAOYSA-N","?","28.5","potentiometric","a/apparent","?","basic",5.41
"12473","S(C1(=CC=NC=C1))CC2(=CC=CC=C2)","C(SC1C=CN=CC=1)C1C=CC=CC=1","InChI=1S/C12H11NS/c1-2-4-11(5-3-1)10-14-12-6-8-13-9-7-12/h1-9H,10H2","WHHDQCXCEKZXHK-UHFFFAOYSA-N","?",,"spectrophotometric","a/apparent","NH%+&","basic",5.41
"16388","FC=3(C2(=NC=1(C(=CC=CC=1)C(=C2C([N+](=O)[O-])=CC=3)NCCC[NH+](C)C)))","CN(C)CCCNC1=C2C(=NC3=CC=CC=C31)C(F)=CC=C2[N+]([O-])=O","InChI=1S/C18H19FN4O2/c1-22(2)11-5-10-20-17-12-6-3-4-7-14(12)21-18-13(19)8-9-15(16(17)18)23(24)25/h3-4,6-9H,5,10-11H2,1-2H3,(H,20,21)","KJZXYAAANXOWCW-UHFFFAOYSA-N","?","25","spectrophotometric","a1/apparent","?","basic",5.41
"10287","OCC1(=CC=NC=C1)","OCC1C=CN=CC=1","InChI=1S/C6H7NO/c8-5-6-1-3-7-4-2-6/h1-4,8H,5H2","PTMBWNZJOQBTBK-UHFFFAOYSA-N","?","25","potentiometric","a1/apparent","?","basic",5.41
"13307","N1(=CC(=CC=C1)C2(N(CCCC2)C))","CN1CCCCC1C1C=NC=CC=1","InChI=1S/C11H16N2/c1-13-8-3-2-6-11(13)10-5-4-7-12-9-10/h4-5,7,9,11H,2-3,6,8H2,1H3","WHAIHNKQZOMXJJ-UHFFFAOYSA-N","?","20","spectrophotometric","a/apparent","?","basic",5.42
"16804","O=[N+]([O-])C=3(C=2(C(=NC(C1(=CC=CC=C1))=CC=2NCCC[NH+](C)C)C(C)=CC=3))","CC1=CC=C(C2C1=NC(=CC=2NCCCN(C)C)C1C=CC=CC=1)[N+]([O-])=O","InChI=1S/C21H24N4O2/c1-15-10-11-19(25(26)27)20-18(22-12-7-13-24(2)3)14-17(23-21(15)20)16-8-5-4-6-9-16/h4-6,8-11,14H,7,12-13H2,1-3H3,(H,22,23)","AZYPBQXYUDSSSV-UHFFFAOYSA-N","?","25","spectrophotometric","a1/apparent","?","basic",5.43
"14958","N=3(C2(=C1(N=CC=CC1=CC=C2C(CC)=CC=3)))","CCC1=CC=NC2=C3N=CC=CC3=CC=C21","InChI=1S/C14H12N2/c1-2-10-7-9-16-14-12(10)6-5-11-4-3-8-15-13(11)14/h3-9H,2H2,1H3","PHYSLYYJFCGNNQ-UHFFFAOYSA-N","?","25","potentiometric","a/apparent","?","basic",5.44
"17304","S1(C(=NC=C1)N)","NC1=NC=CS1","InChI=1S/C3H4N2S/c4-3-5-1-2-6-3/h1-2H,(H2,4,5)","RAIPHJJURHTUIC-UHFFFAOYSA-N","?","22","mean from 3","a1/apparent","?","basic",5.44
"13857","OCN2(C1(=C(C=CC=C1)N=C2))","OCN1C=NC2C=CC=CC1=2","InChI=1S/C8H8N2O/c11-6-10-5-9-7-3-1-2-4-8(7)10/h1-5,11H,6H2","IWCRZZKSGBFRSJ-UHFFFAOYSA-N","?","25","potentiometric","a/apparent","?","basic",5.44
"16304","N=3(C2(=C1(N=CC=CC1=CC=C2C(CCC)=CC=3)))","CCCC1=CC=NC2=C3N=CC=CC3=CC=C21","InChI=1S/C15H14N2/c1-2-4-11-8-10-17-15-13(11)7-6-12-5-3-9-16-14(12)15/h3,5-10H,2,4H2,1H3","ZLYKCSSCJRFYBT-UHFFFAOYSA-N","?","25","potentiometric","a/apparent","?","basic",5.45
"11041","N=2(C1(=C(C=CC=C1)N(C=2)CCC))","CCCN1C=NC2C=CC=CC1=2","InChI=1S/C10H12N2/c1-2-7-12-8-11-9-5-3-4-6-10(9)12/h3-6,8H,2,7H2,1H3","LZUVIELFLONRSS-UHFFFAOYSA-N","?","25","potentiometric","a/apparent","?","basic",5.46
"17524","N(N)CC#C","C#CCNN","InChI=1S/C3H6N2/c1-2-3-5-4/h1,5H,3-4H2","CYCYZHMUOSKYBG-UHFFFAOYSA-N","?","25","potentiometric","a1/apparent","?","basic",5.46
"16522","OCCCNC1(=NC(=NC(=N1)NCCCO)NCCCO)","OCCCNC1N=C(NCCCO)N=C(NCCCO)N=1","InChI=1S/C12H24N6O3/c19-7-1-4-13-10-16-11(14-5-2-8-20)18-12(17-10)15-6-3-9-21/h19-21H,1-9H2,(H3,13,14,15,16,17,18)","MZHBRRRMAOTHNT-UHFFFAOYSA-N","?","25","potentiometric","b/apparent","?","basic",5.48
"16018","N=1(C=3(C(C=C2(C=1C=CC=C2))=CC=CC=3))","C1=C2C=CC=CC2=NC2=CC=CC=C21","InChI=1S/C13H9N/c1-3-7-12-10(5-1)9-11-6-2-4-8-13(11)14-12/h1-9H","DZBUGLKDJFMEHC-UHFFFAOYSA-N","?","22","mean from 6","a1/apparent","?","basic",5.48
"13955","OC2(=CC1(=NC=CC=C1C=C2))","OC1=CC2=NC=CC=C2C=C1","InChI=1S/C9H7NO/c11-8-4-3-7-2-1-5-10-9(7)6-8/h1-6,11H","XCRPPAPDRUBKRJ-UHFFFAOYSA-N","?","20","potentiometric","a1/apparent","?","basic",5.48
"12730","N2(C1(=C(C=CC=C1)CC2))","C1CNC2C=CC=CC=21","InChI=1S/C8H9N/c1-2-4-8-7(3-1)5-6-9-8/h1-4,9H,5-6H2","LPAGFVYQRIESJQ-UHFFFAOYSA-N","?","25",,"a1/thermodynamic","?","basic",5.49
"16702","N=2(C=1(C(=CC(N)=CC=1)C=CC=2C=CC3(=CC=CC=C3)))","NC1C=C2C=CC(C=CC3C=CC=CC=3)=NC2=CC=1","InChI=1S/C17H14N2/c18-15-8-11-17-14(12-15)7-10-16(19-17)9-6-13-4-2-1-3-5-13/h1-12H,18H2","NHTGCAKFXBLYNI-UHFFFAOYSA-N","?","20",,"a/apparent","?","basic",5.5
"14836","N=1(C=3(C(C(CCCCCCCCCCCCCCCCC)=C2(C=1C=CC=C2))=CC=CC=3))","CCCCCCCCCCCCCCCCCC1C2=CC=CC=C2N=C2C=CC=CC2=1","InChI=1S/C30H43N/c1-2-3-4-5-6-7-8-9-10-11-12-13-14-15-16-21-26-27-22-17-19-24-29(27)31-30-25-20-18-23-28(26)30/h17-20,22-25H,2-16,21H2,1H3","INDLBSRTZUPXGU-UHFFFAOYSA-N","?","25","potentiometric","a1/apparent","?","basic",5.5
"11216","S1(C(NCC1)C2(=CC=C(O)C=C2))","OC1=CC=C(C=C1)C1NCCS1","InChI=1S/C9H11NOS/c11-8-3-1-7(2-4-8)9-10-5-6-12-9/h1-4,9-11H,5-6H2","DYHNVKKDCQGROL-UHFFFAOYSA-N","?","27","mean from 2","a1/apparent","NH2(+)","basic",5.5
"13895","N=1(C=2(C(C(C)=CC=1)=CC=CC=2))","CC1=CC=NC2=CC=CC=C21","InChI=1S/C10H9N/c1-8-6-7-11-10-5-3-2-4-9(8)10/h2-7H,1H3","MUDSDYNRBDKLGK-UHFFFAOYSA-N","?","20","mean from 3","b/apparent","?","basic",5.51
"12723","N=2(C1(=C(C=CC=C1)NC=2))","C1NC2C=CC=CC=2N=1","InChI=1S/C7H6N2/c1-2-4-7-6(3-1)8-5-9-7/h1-5H,(H,8,9)","HYZJCKYKOHLVJF-UHFFFAOYSA-N","?","23","mean from 9","a1/apparent","=NH(+)","basic",5.51
"15743","O(C1(=C(N=CC(=C1C)CO)C))CC2(=CC=CC=C2)","CC1C(OCC2C=CC=CC=2)=C(C)N=CC=1CO","InChI=1S/C15H17NO2/c1-11-14(9-17)8-16-12(2)15(11)18-10-13-6-4-3-5-7-13/h3-8,17H,9-10H2,1-2H3","HWUCMHJWFIJOTF-UHFFFAOYSA-N","?","17","spectrophotometric","a/apparent","NH+","basic",5.52
"16939","S(SCCC)C(=C(N(C=O)CC1(=C(N=C(C)N=C1)N))C)CCO","CCCSSC(CCO)=C(C)N(CC1C=NC(C)=NC=1N)C=O","InChI=1S/C15H24N4O2S2/c1-4-7-22-23-14(5-6-20)11(2)19(10-21)9-13-8-17-12(3)18-15(13)16/h8,10,20H,4-7,9H2,1-3H3,(H2,16,17,18)","UDCIYVVYDCXLSX-UHFFFAOYSA-N","?","25",,"a/apparent","?","basic",5.52
"17902","N=1(N(C=C(C=1)N)C)","CN1C=C(N)C=N1","InChI=1S/C4H7N3/c1-7-3-4(5)2-6-7/h2-3H,5H2,1H3","LBGSWBJURUFGLR-UHFFFAOYSA-N","?","25","potentiometric","a1/apparent","NH3+","basic",5.52
"15520","N=3(C2(=C1(N=CC(C)=CC1=C(C)C(=C2C=C(C=3)C)C)))","CC1=CC2C(N=C1)=C1N=CC(C)=CC1=C(C)C=2C","InChI=1S/C16H16N2/c1-9-5-13-11(3)12(4)14-6-10(2)8-18-16(14)15(13)17-7-9/h5-8H,1-4H3","RLTILZHOUNHUQL-UHFFFAOYSA-N","?","25","potentiometric","a/apparent","?","basic",5.54
"10289","OC1(=CC=C(N)C=C1)","NC1=CC=C(O)C=C1","InChI=1S/C6H7NO/c7-5-1-3-6(8)4-2-5/h1-4,8H,7H2","PLIKAWJENQZMHA-UHFFFAOYSA-N","?","23","mean from 8","b1/apparent","NH3(+)","basic",5.54
"13122","O1(CCN(CC#C)CC1)","C#CCN1CCOCC1","InChI=1S/C7H11NO/c1-2-3-8-4-6-9-7-5-8/h1H,3-7H2","OKDZHAQIKCVKFE-UHFFFAOYSA-N","?","25","spectrophotometric","a1/apparent",">NH(+)","basic",5.54
"11240","N2(=C(NC)C1(=C(NN=C1)N=C2C))","CC1N=C(NC)C2C=NNC=2N=1","InChI=1S/C7H9N5/c1-4-10-6(8-2)5-3-9-12-7(5)11-4/h3H,1-2H3,(H2,8,9,10,11,12)","KUQUGMDJBPPLQJ-UHFFFAOYSA-N","?","20","spectrophotometric","a1/apparent","?","basic",5.56
"11641","N(C1(=CC=C(C)C=C1))(C)C","CC1C=CC(=CC=1)N(C)C","InChI=1S/C9H13N/c1-8-4-6-9(7-5-8)10(2)3/h4-7H,1-3H3","GYVGXEWAOAAJEU-UHFFFAOYSA-N","?","22","mean from 6","b/apparent","?","basic",5.56
"14957","N=3(C2(=C1(N=CC=C(C1=CC=C2C=C(C=3)C)C)))","CC1C=NC2=C3N=CC=C(C)C3=CC=C2C=1","InChI=1S/C14H12N2/c1-9-7-11-3-4-12-10(2)5-6-15-14(12)13(11)16-8-9/h3-8H,1-2H3","MILFJIAHHRJOMW-UHFFFAOYSA-N","?","25","potentiometric","a/apparent","?","basic",5.57
"10214","N1(=CC(=CC=C1)CC)","CCC1C=NC=CC=1","InChI=1S/C7H9N/c1-2-7-4-3-5-8-6-7/h3-6H,2H2,1H3","MFEIKQPHQINPRI-UHFFFAOYSA-N","?","25","mean from 3","a1/apparent","NH(+)","basic",5.57
"11767","OCCCC1(=CN=CC=C1)","OCCCC1=CN=CC=C1","InChI=1S/C8H11NO/c10-6-2-4-8-3-1-5-9-7-8/h1,3,5,7,10H,2,4,6H2","ZUGAIMFLQLPTKB-UHFFFAOYSA-N","?","25","potentiometric","a1/apparent","?","basic",5.57
"10888","O=C([O-])C#CCN1(CCOCC1)","OC(=O)C#CCN1CCOCC1","InChI=1S/C8H11NO3/c10-8(11)2-1-3-9-4-6-12-7-5-9/h3-7H2,(H,10,11)","ZISHHSWJMOOXKT-UHFFFAOYSA-N","?","20","potentiometric","a2/apparent","?","basic",5.57
"16370","S(SCCC(C)C)C(=C(N(C=O)CC1(=C(N=C(C)N=C1)N))C)CCO","CC1N=CC(CN(C=O)C(C)=C(CCO)SSCCC(C)C)=C(N)N=1","InChI=1S/C17H28N4O2S2/c1-12(2)6-8-24-25-16(5-7-22)13(3)21(11-23)10-15-9-19-14(4)20-17(15)18/h9,11-12,22H,5-8,10H2,1-4H3,(H2,18,19,20)","AJICNXGVQCNIGY-UHFFFAOYSA-N","?","25",,"a/apparent","?","basic",5.58
"13890","N1(=C(N=C2(NN=CC2(=C1N)))N)","NC1N=C2NN=CC2=C(N)N=1","InChI=1S/C5H6N6/c6-3-2-1-8-11-4(2)10-5(7)9-3/h1H,(H5,6,7,8,9,10,11)","NXSAXOJMBFFHSG-UHFFFAOYSA-N","?","20","spectrophotometric","a/apparent","?","basic",5.58
"14355","O=C(N)CCC1(=CC=NC=C1)","N=C(O)CCC1C=CN=CC=1","InChI=1S/C8H10N2O/c9-8(11)2-1-7-3-5-10-6-4-7/h3-6H,1-2H2,(H2,9,11)","FLDCAFAKYCVBLK-UHFFFAOYSA-N","?","25","potentiometric","a1/apparent","?","basic",5.58
"16515","S(SC)C(=C(N(C=O)CC1(=C(N=C(C)N=C1)N))C)CCO","CSSC(CCO)=C(C)N(CC1C=NC(C)=NC=1N)C=O","InChI=1S/C13H20N4O2S2/c1-9(12(4-5-18)21-20-3)17(8-19)7-11-6-15-10(2)16-13(11)14/h6,8,18H,4-5,7H2,1-3H3,(H2,14,15,16)","MRPDHNUNBVWGNL-UHFFFAOYSA-N","?","25",,"a/apparent","?","basic",5.59
"13817","N2(=CC=1(C(=C(N)C=CC=1)C=C2))","NC1C=CC=C2C=NC=CC2=1","InChI=1S/C9H8N2/c10-9-3-1-2-7-6-11-5-4-8(7)9/h1-6H,10H2","DTVYNUOOZIKEEX-UHFFFAOYSA-N","?","20","potentiometric","a/apparent","?","basic",5.59
"13577","O=C(N)CCCCC1(=CN=CC=C1)","N=C(O)CCCCC1C=NC=CC=1","InChI=1S/C10H14N2O/c11-10(13)6-2-1-4-9-5-3-7-12-8-9/h3,5,7-8H,1-2,4,6H2,(H2,11,13)","BGLCIHJLPVKCOL-UHFFFAOYSA-N","?","25","potentiometric","a1/apparent","?","basic",5.6
"12507","OC1(=C(C(=CN=C1)C2(CCCCC2))C)","CC1=C(O)C=NC=C1C1CCCCC1","InChI=1S/C12H17NO/c1-9-11(7-13-8-12(9)14)10-5-3-2-4-6-10/h7-8,10,14H,2-6H2,1H3","FKMIOEHSGYAQJS-UHFFFAOYSA-N","?",,,"a/apparent","1","basic",5.6
"15540","O=C(NC3(=CC2(=NC=1(C(=CC=CC=1)C=C2C=C3))))C","C/C(/O)=N\C1C=C2N=C3C=CC=CC3=CC2=CC=1","InChI=1S/C15H12N2O/c1-10(18)16-13-7-6-12-8-11-4-2-3-5-14(11)17-15(12)9-13/h2-9H,1H3,(H,16,18)","AOFMKIDPLZIMSQ-UHFFFAOYSA-N","?","20","potentiometric","a/apparent","?","basic",5.6
"15517","N=3(C2(=C1(N=CC=C(C1=CC=C2C(CC)=CC=3)CC)))","CCC1=CC=NC2=C3N=CC=C(CC)C3=CC=C12","InChI=1S/C16H16N2/c1-3-11-7-9-17-15-13(11)5-6-14-12(4-2)8-10-18-16(14)15/h5-10H,3-4H2,1-2H3","KRVFODAGBAKIKF-UHFFFAOYSA-N","?","25","potentiometric","a/apparent","?","basic",5.6
"16788","OC(CN(CC(O)CC)CCCCCCCCCCCCCCCC)CC","CCCCCCCCCCCCCCCCN(CC(O)CC)CC(O)CC","InChI=1S/C24H51NO2/c1-4-7-8-9-10-11-12-13-14-15-16-17-18-19-20-25(21-23(26)5-2)22-24(27)6-3/h23-24,26-27H,4-22H2,1-3H3","CXISVQJZXGIVPX-UHFFFAOYSA-N","?","20","potentiometric","a1/apparent","-NH3%+&","basic",5.6
"16563","OC(CN(CC(O)CC)CCCCCCCCCCCCCCCCCC)CC","CCCCCCCCCCCCCCCCCCN(CC(O)CC)CC(O)CC","InChI=1S/C26H55NO2/c1-4-7-8-9-10-11-12-13-14-15-16-17-18-19-20-21-22-27(23-25(28)5-2)24-26(29)6-3/h25-26,28-29H,4-24H2,1-3H3","NBJGZCOYHMHAAP-UHFFFAOYSA-N","?","20","potentiometric","a1/apparent","-NH3%+&","basic",5.6
"11860","S=P(C(=S)NN)(CC)CC","CCP(=S)(CC)C(=S)NN","InChI=1S/C5H13N2PS2/c1-3-8(10,4-2)5(9)7-6/h3-4,6H2,1-2H3,(H,7,9)","NJBLFBUWNUBXGX-UHFFFAOYSA-N","?","20","potentiometric","a1/apparent","?","basic",5.6
"15411","OC(C1(=CC=C(N(C)C)C=C1))C2(=CC=C(N(C)C)C=C2)","CN(C)C1C=CC(=CC=1)C(O)C1C=CC(=CC=1)N(C)C","InChI=1S/C17H22N2O/c1-18(2)15-9-5-13(6-10-15)17(20)14-7-11-16(12-8-14)19(3)4/h5-12,17,20H,1-4H3","YLZSIUVOIFJGQZ-UHFFFAOYSA-N","?","25",,"thermodynamic","?","basic",5.61
"13598","N1(=C(N=C(N)N=C1N)N(CC)CC)","CCN(CC)C1N=C(N)N=C(N)N=1","InChI=1S/C7H14N6/c1-3-13(4-2)7-11-5(8)10-6(9)12-7/h3-4H2,1-2H3,(H4,8,9,10,11,12)","LLOVZIWCKUWRTA-UHFFFAOYSA-N","?","25","potentiometric","b/apparent","?","basic",5.61
"14955","N=3(C2(=C1(N=CC=CC1=CC=C2C(C)=C(C=3)C)))","CC1C=NC2=C3N=CC=CC3=CC=C2C=1C","InChI=1S/C14H12N2/c1-9-8-16-14-12(10(9)2)6-5-11-4-3-7-15-13(11)14/h3-8H,1-2H3","GLPRNMQODYFTAY-UHFFFAOYSA-N","?","25","potentiometric","a/apparent","?","basic",5.62
"10194","N1(=CC=C(C=C)C=C1)","C=CC1C=CN=CC=1","InChI=1S/C7H7N/c1-2-7-3-5-8-6-4-7/h2-6H,1H2","KFDVPJUYSDEJTH-UHFFFAOYSA-N","?","25","potentiometric","a/thermodynamic","NH+","basic",5.62
"11185","OC=2(C1(=NC(=CC=C1C=CC=2)C))","CC1=CC=C2C=CC=C(O)C2=N1","InChI=1S/C10H9NO/c1-7-5-6-8-3-2-4-9(12)10(8)11-7/h2-6,12H,1H3","NBYLBWHHTUWMER-UHFFFAOYSA-N","?","22","mean from 3","a1/apparent","N-H","basic",5.63
"14829","O=C(OC)N2(C1(=C(C=CC=C1)C35(C26(C(O)(C(=O)OC)C(O)C4(C=CCN(C34)CC5)(CC6)))))","COC(=O)N1C2C=CC=CC=2C23CCN4CC=CC5(CCC21C(O)(C5O)C(=O)OC)C34","InChI=1S/C23H26N2O6/c1-30-18(27)23(29)17(26)20-8-5-12-24-13-11-21(16(20)24)14-6-3-4-7-15(14)25(19(28)31-2)22(21,23)10-9-20/h3-8,16-17,26,29H,9-13H2,1-2H3","HVUPNDMRYTUMME-UHFFFAOYSA-N","?",,,"a/apparent","?","basic",5.63
"10718","O=C(N)CCCC1(=CC=NC=C1)","N=C(O)CCCC1C=CN=CC=1","InChI=1S/C9H12N2O/c10-9(12)3-1-2-8-4-6-11-7-5-8/h4-7H,1-3H2,(H2,10,12)","UFHNICBDVYKVDF-UHFFFAOYSA-N","?","25","potentiometric","a1/apparent","?","basic",5.64
"16938","S(SCC=C)C(=C(N(C=O)CC1(=C(N=C(C)N=C1)N))C)CCO","CC1N=CC(CN(C=O)C(C)=C(CCO)SSCC=C)=C(N)N=1","InChI=1S/C15H22N4O2S2/c1-4-7-22-23-14(5-6-20)11(2)19(10-21)9-13-8-17-12(3)18-15(13)16/h4,8,10,20H,1,5-7,9H2,2-3H3,(H2,16,17,18)","WNCAVNGLACHSRZ-UHFFFAOYSA-N","?","25",,"a/apparent","?","basic",5.65
"11995","N=2(C1(=C(C=CC=C1)N(C=2)C))","CN1C=NC2C=CC=CC1=2","InChI=1S/C8H8N2/c1-10-6-9-7-4-2-3-5-8(7)10/h2-6H,1H3","FGYADSCZTQOAFK-UHFFFAOYSA-N","?","25","mean from 4","a1/apparent","?","basic",5.65
"15641","N=3(C2(=C1(N=CC=CC1=CC=C2C=4(CCCCC=4(C=3)))))","C1CCCC2C3=CC=C4C=CC=NC4=C3N=CC=21","InChI=1S/C16H14N2/c1-2-6-13-12(4-1)10-18-16-14(13)8-7-11-5-3-9-17-15(11)16/h3,5,7-10H,1-2,4,6H2","KGWJZCDJNKOIST-UHFFFAOYSA-N","?","25","potentiometric","a/apparent","?","basic",5.66
"13820","N=2(C1(=C(C=CC=C1)N(C=2)CC))","CCN1C=NC2C=CC=CC1=2","InChI=1S/C9H10N2/c1-2-11-7-10-8-5-3-4-6-9(8)11/h3-7H,2H2,1H3","WVNMLOGVAVGQIT-UHFFFAOYSA-N","?","25","mean from 2","a/apparent","?","basic",5.66
"13965","OC=2(C=1(C(=CC=NC=1)C=CC=2))","OC1=CC=CC2=CC=NC=C21","InChI=1S/C9H7NO/c11-9-3-1-2-7-4-5-10-6-8(7)9/h1-6,11H","ZIXWTPREILQLAC-UHFFFAOYSA-N","?","20","potentiometric","a1/apparent","?","basic",5.66
"11997","N=2(C1(=C(C=CC=C1NC=2)C))","CC1C=CC=C2NC=NC2=1","InChI=1S/C8H8N2/c1-6-3-2-4-7-8(6)10-5-9-7/h2-5H,1H3,(H,9,10)","QCXGJTGMGJOYDP-UHFFFAOYSA-N","?","25","potentiometric","a/apparent","?","basic",5.67
"13007","N1(=C(C=CC(=C1)C=C)C)","CC1C=CC(C=C)=CN=1","InChI=1S/C8H9N/c1-3-8-5-4-7(2)9-6-8/h3-6H,1H2,2H3","VJOWMORERYNYON-UHFFFAOYSA-N","?","25","potentiometric","a/thermodynamic","NH%+&","basic",5.67
"11637","N(C1(=CC=CC=C1))C(C)C","CC(C)NC1C=CC=CC=1","InChI=1S/C9H13N/c1-8(2)10-9-6-4-3-5-7-9/h3-8,10H,1-2H3","FRCFWPVMFJMNDP-UHFFFAOYSA-N","?","22","mean from 6","a1/apparent","?","basic",5.67