"Molecule name","OriginalSmiles","Canonical_QSARr","InChI_Code_QSARr","InChI Key_QSARr","Salt_Solvent (Concatenate)","temp","method","type","group","basicOrAcidic","pKa"
"15467","O=C([O-])C3(C=C2(C4(=C1(C(NC=C1CC2N(C3)C)=CC=C4))))","CN1CC(C=C2C1CC1=CNC3=CC=CC2=C31)=C(O)O","InChI=1S/C16H16N2O2/c1-18-8-10(16(19)20)5-12-11-3-2-4-13-15(11)9(7-17-13)6-14(12)18/h2-5,7,14,17,19-20H,6,8H2,1H3","NWDLLIYZNSKCHR-UHFFFAOYSA-N","?, ?","23","mean from 3","a2/apparent","?, ?","basic",8.17
"16414","O=C3(N2(C1(=C(C=CC=C1)C57(C2C4(C6(C(=CCOC4(C3))CN(C5C6)CC7))))))","OC1=CC2OCC=C3CN4CCC56C(C2C3CC54)N1C1C=CC=CC6=1","InChI=1S/C21H22N2O2/c24-18-10-16-19-13-9-17-21(6-7-22(17)11-12(13)5-8-25-16)14-3-1-2-4-15(14)23(18)20(19)21/h1-5,10,13,16-17,19-20,24H,6-9,11H2","DDXZIBDRPCPPTA-UHFFFAOYSA-N","?","20","mean from 2","a/thermodynamic","?","basic",8.18
"12541","N1(=N[N-]C(=N1)C(N)CC2(=CC=CC=C2))","NC(CC1C=CC=CC=1)C1N=NNN=1","InChI=1S/C9H11N5/c10-8(9-11-13-14-12-9)6-7-4-2-1-3-5-7/h1-5,8H,6,10H2,(H,11,12,13,14)","NXQBRADSLPEODL-UHFFFAOYSA-N","?","25","potentiometric","a2/apparent","?","basic",8.18
"15717","O=C(NC2(C1(=C(C=CC=C1)CC2)))CN(CC)CC","CCN(C/C(/O)=N\C1CCC2=CC=CC=C21)CC","InChI=1S/C15H22N2O/c1-3-17(4-2)11-15(18)16-14-10-9-12-7-5-6-8-13(12)14/h5-8,14H,3-4,9-11H2,1-2H3,(H,16,18)","WNBMGEXKKSPUBS-UHFFFAOYSA-N","?","25","potentiometric","a1/apparent","NH","basic",8.19
"17796","N=1(C(=C(C)NC=1)C)","CC1N=CNC=1C","InChI=1S/C5H8N2/c1-4-5(2)7-3-6-4/h3H,1-2H3,(H,6,7)","YSWBFLWKAIRHEI-UHFFFAOYSA-N","?","25","potentiometric","a1/apparent","NH","basic",8.19
"17862","N1(C(CC)C1)(CC)","CCN1CC1CC","InChI=1S/C6H13N/c1-3-6-5-7(6)4-2/h6H,3-5H2,1-2H3","OOCFZXAIPSMXEL-UHFFFAOYSA-N","?",,"potentiometric","b/thermodynamic","?","basic",8.19
"10704","ClC1(=CC(=C([N+](=O)[O-])C=C1)CN)","NCC1C=C(Cl)C=CC=1[N+]([O-])=O","InChI=1S/C7H7ClN2O2/c8-6-1-2-7(10(11)12)5(3-6)4-9/h1-3H,4,9H2","LTXOSXDGPYTXPL-UHFFFAOYSA-N","?","25","potentiometric","a1/apparent","?","basic",8.19
"15661","N1(=C(N=C(N)N=C1N)NC(=N)NC2(=CC=CC=C2))","NC1=NC(NC(=N)NC2C=CC=CC=2)=NC(N)=N1","InChI=1S/C10H12N8/c11-7(14-6-4-2-1-3-5-6)16-10-17-8(12)15-9(13)18-10/h1-5H,(H7,11,12,13,14,15,16,17,18)","GLOOIGMFIWALOX-UHFFFAOYSA-N","?",,"spectrophotometric","a/apparent","?","basic",8.2
"14100","N(C(C#C)(C)C)C(C=C)(C)C","CC(C)(C#C)NC(C)(C)C=C","InChI=1S/C10H17N/c1-7-9(3,4)11-10(5,6)8-2/h1,8,11H,2H2,3-6H3","RNQWTFCKILAQKZ-UHFFFAOYSA-N","?","25","potentiometric","a1/apparent","?","basic",8.2
"13206","N(C(C#C)(CC)CC)(C(C)C)CC","CC(C)N(CC)C(CC)(CC)C#C","InChI=1S/C12H23N/c1-7-12(8-2,9-3)13(10-4)11(5)6/h1,11H,8-10H2,2-6H3","NJOKSTDWXPCWSP-UHFFFAOYSA-N","?","25","potentiometric","a1/apparent","?","basic",8.2
"16305","N2(=C(C1(=CC=CC=C1))C=C(N)C=3(C2=CC=CC=3))","NC1=CC(=NC2=CC=CC=C21)C1C=CC=CC=1","InChI=1S/C15H12N2/c16-13-10-15(11-6-2-1-3-7-11)17-14-9-5-4-8-12(13)14/h1-10H,(H2,16,17)","URUHKHGBRNTPGA-UHFFFAOYSA-N","?","20",,"a/apparent","?","basic",8.2
"16547","S3(C(C(C=1(SC=CC=1))=CC(N2(CCC(C)CC2))C)=CC=C3)","CC1CCN(CC1)C(C)C=C(C1=CC=CS1)C1=CC=CS1","InChI=1S/C18H23NS2/c1-14-7-9-19(10-8-14)15(2)13-16(17-5-3-11-20-17)18-6-4-12-21-18/h3-6,11-15H,7-10H2,1-2H3","FXTKKSPUTNSBOH-UHFFFAOYSA-N","?","25","potentiometric","a/apparent","NH+","basic",8.2
"13992","[S-]C1(=NC(=NC2(=C1NC=N2))N)","NC1=NC2N=CNC=2C(S)=N1","InChI=1S/C5H5N5S/c6-5-9-3-2(4(11)10-5)7-1-8-3/h1H,(H4,6,7,8,9,10,11)","WYWHKKSPHMUBEB-UHFFFAOYSA-N","?","23","spectrophotometric","a1/apparent","?","basic",8.2
"12896","N1(=C(N(CCC)C=C1)C)","CCCN1C=CN=C1C","InChI=1S/C7H12N2/c1-3-5-9-6-4-8-7(9)2/h4,6H,3,5H2,1-2H3","SIQHSJOKAUDDLN-UHFFFAOYSA-N","?","25","potentiometric","a1/apparent","?","basic",8.2
"11274","S1(C(=NN)N(C)C2(=C1CCCC2))","CN1C(N=N)SC2CCCCC1=2","InChI=1S/C8H13N3S/c1-11-6-4-2-3-5-7(6)12-8(11)10-9/h8-9H,2-5H2,1H3","RBCZALBQEFIHTO-UHFFFAOYSA-N","?","20","potentiometric","a/apparent","?","basic",8.2
"14149","O1(C2(C(O)C3(CC1CC2N3(C))))","CN1C2CC3CC1C(O3)C2O","InChI=1S/C8H13NO2/c1-9-5-2-4-3-6(9)8(11-4)7(5)10/h4-8,10H,2-3H2,1H3","MEGPURSNXMUDAE-UHFFFAOYSA-N","?",,"potentiometric","a/apparent","?","basic",8.2
"14651","O=C(NC1(CCCCC1))CN(CC)CC","CCN(C/C(/O)=N\C1CCCCC1)CC","InChI=1S/C12H24N2O/c1-3-14(4-2)10-12(15)13-11-8-6-5-7-9-11/h11H,3-10H2,1-2H3,(H,13,15)","BOHOZTSAZCZGBT-UHFFFAOYSA-N","?",,,"a/thermodynamic","?","basic",8.21
"14678","O=C([O-])C(NCC1(=C(O)C=CC=C1))CO","OC1=CC=CC=C1CN=C(CO)C(O)O","InChI=1S/C10H13NO4/c12-6-8(10(14)15)11-5-7-3-1-2-4-9(7)13/h1-4,10,12-15H,5-6H2","QHCMDCQBMKSGLM-UHFFFAOYSA-N","?","25","mean from 2","a2/apparent","ArO-H","basic",8.22
"13610","S(C(=N)C1(=CC=CC=C1))CC(C)C","CC(C)CSC(=N)C1C=CC=CC=1","InChI=1S/C11H15NS/c1-9(2)8-13-11(12)10-6-4-3-5-7-10/h3-7,9,12H,8H2,1-2H3","YEVROGRCGBMUHC-UHFFFAOYSA-N","?","25",,"b/apparent","?","basic",8.22
"11325","SCCN(CC(C)C)CC(C)C","CC(C)CN(CCS)CC(C)C","InChI=1S/C10H23NS/c1-9(2)7-11(5-6-12)8-10(3)4/h9-10,12H,5-8H2,1-4H3","ZTEXJPYHNKPYFC-UHFFFAOYSA-N","?","17","potentiometric","b/apparent","?","basic",8.23
"16172","ClC1(=C([O-])C(=C(Cl)C=C1Cl)CN2(CCOCC2))","OC1C(CN2CCOCC2)=C(Cl)C=C(Cl)C=1Cl","InChI=1S/C11H12Cl3NO2/c12-8-5-9(13)10(14)11(16)7(8)6-15-1-3-17-4-2-15/h5,16H,1-4,6H2","SXLCRVXLZXSECK-UHFFFAOYSA-N","?","25","spectrophotometric","a2/apparent","?","basic",8.23
"14693","O=C(OCC)CC(NC)C1(=CC=CC=C1)","CNC(C=C(O)OCC)C1C=CC=CC=1","InChI=1S/C12H17NO2/c1-3-15-12(14)9-11(13-2)10-7-5-4-6-8-10/h4-9,11,13-14H,3H2,1-2H3","XGDVHLPZDQTXLK-UHFFFAOYSA-N","?","20","potentiometric","b/apparent","?","basic",8.23
"10675","O=C(N)CC(=O)C1(=NC=CC=C1)","N=C(O)CC(=O)C1=CC=CC=N1","InChI=1S/C8H8N2O2/c9-8(12)5-7(11)6-3-1-2-4-10-6/h1-4H,5H2,(H2,9,12)","DEROUHVQAYMVBJ-UHFFFAOYSA-N","?","25","spectrophotometric","a1/apparent","?","basic",8.23
"10674","O=C(N)C=C(O)C1(=NC=CC=C1)","NC(=O)C=C(O)C1C=CC=CN=1","InChI=1S/C8H8N2O2/c9-8(12)5-7(11)6-3-1-2-4-10-6/h1-5,11H,(H2,9,12)","YSWJZGFRNPHEFH-UHFFFAOYSA-N","?","25","spectrophotometric","a1/apparent","?","basic",8.23
"16176","[Si](OC2(CN(CC1(=CC=C(C)C=C1))C2))(C)(C)C","CC1C=CC(CN2CC(C2)O[Si](C)(C)C)=CC=1","InChI=1S/C14H23NOSi/c1-12-5-7-13(8-6-12)9-15-10-14(11-15)16-17(2,3)4/h5-8,14H,9-11H2,1-4H3","IFCPRUYVLJIPNK-UHFFFAOYSA-N","?","20","potentiometric","a1/apparent","?","basic",8.24
"14109","O=C(OC(CN(C)C)C)CC","CC=C(O)OC(C)CN(C)C","InChI=1S/C8H17NO2/c1-5-8(10)11-7(2)6-9(3)4/h5,7,10H,6H2,1-4H3","VOIDCLYBBUMHFA-UHFFFAOYSA-N","?","25","potentiometric","a/thermodynamic","prot.","basic",8.26
"14120","O=C([O-])CCC#CC#CCN","NCC#CC#CCC=C(O)O","InChI=1S/C8H9NO2/c9-7-5-3-1-2-4-6-8(10)11/h6,10-11H,4,7,9H2","SRUIXOHMXRMONN-UHFFFAOYSA-N","?","20","mean from 2","b1/apparent","?","basic",8.26
"13705","OC1(=C(O)C(=CC=C1O)CN(C)C)","CN(C)CC1=CC=C(O)C(O)=C1O","InChI=1S/C9H13NO3/c1-10(2)5-6-3-4-7(11)9(13)8(6)12/h3-4,11-13H,5H2,1-2H3","VIBRXFYWNYLCJS-UHFFFAOYSA-N","?","25","potentiometric","a1/apparent","?","basic",8.26
"12295","O=C(OCCN(CCCC)C)C(=C)C","CC(=C)C(=O)OCCN(C)CCCC","InChI=1S/C11H21NO2/c1-5-6-7-12(4)8-9-14-11(13)10(2)3/h2,5-9H2,1,3-4H3","CQHCELUGMINPCE-UHFFFAOYSA-N","?","25","mean from 3","a1/thermodynamic","?","basic",8.27
"12689","S(C(=O)C)CCN(C)C","CN(C)CCSC(=C)O","InChI=1S/C6H13NOS/c1-6(8)9-5-4-7(2)3/h8H,1,4-5H2,2-3H3","FXGGJCTYPHGRDN-UHFFFAOYSA-N","?","25","potentiometric","a/thermodynamic","?","basic",8.27
"11337","O=C(OC(CN(C)C)C)CCC","CCC=C(O)OC(C)CN(C)C","InChI=1S/C9H19NO2/c1-5-6-9(11)12-8(2)7-10(3)4/h6,8,11H,5,7H2,1-4H3","BSNKZKUWOYKVOH-UHFFFAOYSA-N","?","25","potentiometric","a/thermodynamic","prot.","basic",8.27
"16546","S3(C(C(C=1(SC=CC=1))=CC(N2(CC(CCC2)C))C)=CC=C3)","CC1CN(CCC1)C(C)C=C(C1=CC=CS1)C1=CC=CS1","InChI=1S/C18H23NS2/c1-14-6-3-9-19(13-14)15(2)12-16(17-7-4-10-20-17)18-8-5-11-21-18/h4-5,7-8,10-12,14-15H,3,6,9,13H2,1-2H3","DRHHXMDPOKHINI-UHFFFAOYSA-N","?","25","potentiometric","a/apparent","NH+","basic",8.28
"17671","O=C(NC)CNC","CNC(O)C=NC","InChI=1S/C4H10N2O/c1-5-3-4(7)6-2/h3-4,6-7H,1-2H3","KPCBXNVHXFAYBT-UHFFFAOYSA-N","?","25","potentiometric","a/apparent","?","basic",8.28
"14330","O=C(OCC)N1(CCNCC1)","CCOC(=O)N1CCNCC1","InChI=1S/C7H14N2O2/c1-2-11-7(10)9-5-3-8-4-6-9/h8H,2-6H2,1H3","LNOQURRKNJKKBU-UHFFFAOYSA-N","?","25","potentiometric","a/apparent","?","basic",8.28
"10727","OC1(=CC=C(N=CN(C)C)C=C1)","CN(C)C=NC1C=CC(O)=CC=1","InChI=1S/C9H12N2O/c1-11(2)7-10-8-3-5-9(12)6-4-8/h3-7,12H,1-2H3","YXTSZBNGJXQOIM-UHFFFAOYSA-N","?","20","potentiometric","a1/apparent","?","basic",8.28
"16706","O(C3(=C(C=1(NC=2(C=NC=CC=2(C=1))))C=CC(=C3)OC))C","COC1=CC(OC)=C(C=C1)C1=CC2C=CN=CC=2N1","InChI=1S/C15H14N2O2/c1-18-11-3-4-12(15(8-11)19-2)13-7-10-5-6-16-9-14(10)17-13/h3-9,17H,1-2H3","SHCNHOYCRHTEPZ-UHFFFAOYSA-N","?","25","mean from 3","a1/apparent","?","basic",8.29
"15473","N4(CC1(=C(C=3(C=CC=CC=3(C1C2(=CC=CC=C2))))CC4))(C)","CN1CC2C(C3C=CC=CC=3C=2CC1)C1C=CC=CC=1","InChI=1S/C19H19N/c1-20-12-11-16-15-9-5-6-10-17(15)19(18(16)13-20)14-7-3-2-4-8-14/h2-10,19H,11-13H2,1H3","ISFHAYSTHMVOJR-UHFFFAOYSA-N","?",,"potentiometric","a/apparent","NH+","basic",8.29
"13920","[S-]C=2(C1(=NC=CC=C1C=CC=2))","SC1=CC=CC2=CC=CN=C21","InChI=1S/C9H7NS/c11-8-5-1-3-7-4-2-6-10-9(7)8/h1-6,11H","MHTSJSRDFXZFHQ-UHFFFAOYSA-N","?","20","spectrophotometric","a2/apparent","?","basic",8.29
"16265","O=C([O-])C(NCC1(=C(O)C=CC(=C1)OC))CO","COC1C=C(CN=C(CO)C(O)O)C(O)=CC=1","InChI=1S/C11H15NO5/c1-17-8-2-3-10(14)7(4-8)5-12-9(6-13)11(15)16/h2-4,11,13-16H,5-6H2,1H3","IFTAZLOARCLWLC-UHFFFAOYSA-N","?","25","mean from 2","a2/apparent","ArO-H","basic",8.3
"14700","OC1(=C(C=CC=C1)CN(CCC)CCC)","CCCN(CC1C=CC=CC=1O)CCC","InChI=1S/C13H21NO/c1-3-9-14(10-4-2)11-12-7-5-6-8-13(12)15/h5-8,15H,3-4,9-11H2,1-2H3","GQINZWSENUXIOW-UHFFFAOYSA-N","?","25","potentiometric","b1/apparent","?","basic",8.3
"16041","OC(CN(CCO)CCCCCCCC)CC","CCCCCCCCN(CCO)CC(O)CC","InChI=1S/C14H31NO2/c1-3-5-6-7-8-9-10-15(11-12-16)13-14(17)4-2/h14,16-17H,3-13H2,1-2H3","VCTKHAITZCLDQO-UHFFFAOYSA-N","?","20","potentiometric","a1/apparent","-NH3%+&","basic",8.3
"16043","OC(CN(CC(O)C)CCCCCCCC)C","CCCCCCCCN(CC(C)O)CC(C)O","InChI=1S/C14H31NO2/c1-4-5-6-7-8-9-10-15(11-13(2)16)12-14(3)17/h13-14,16-17H,4-12H2,1-3H3","QNRXIVCOPVCHAA-UHFFFAOYSA-N","?",,"potentiometric","a/apparent","prot.","basic",8.3
"15739","O(C2(=C(C(=N)C1(=CC=CC=C1))C=CC(=C2)OC))C","COC1C=C(C=CC=1C(=N)C1C=CC=CC=1)OC","InChI=1S/C15H15NO2/c1-17-12-8-9-13(14(10-12)18-2)15(16)11-6-4-3-5-7-11/h3-10,16H,1-2H3","MAGRLYHZRPHORR-UHFFFAOYSA-N","?",,"potentiometric","b/apparent","?","basic",8.3
"12601","N#CCCNCCCC","CCCCNCCC#N","InChI=1S/C7H14N2/c1-2-3-6-9-7-4-5-8/h9H,2-4,6-7H2,1H3","FPGVMJDQNJEAJM-UHFFFAOYSA-N","?","20","potentiometric","a1/apparent","?","basic",8.3
"11692","OC1(=C(O)C=CC=C1CN)","NCC1=CC=CC(O)=C1O","InChI=1S/C7H9NO2/c8-4-5-2-1-3-6(9)7(5)10/h1-3,9-10H,4,8H2","OALRPMSYTYFUEP-UHFFFAOYSA-N","?","25","potentiometric","a1/apparent","?","basic",8.3
"11917","O=CC(N(CC)CC)(C)C","CC(C)(C=O)N(CC)CC","InChI=1S/C8H17NO/c1-5-9(6-2)8(3,4)7-10/h7H,5-6H2,1-4H3","KBDNYPYQLYSNHO-UHFFFAOYSA-N","?","21","spectrophotometric","a1/apparent","?","basic",8.3
"16229","O=C([O-])C(NC(=O)CC[NH3+])CC=1(N(C=NC=1)C)","CN1C=NC=C1CC(/N=C(/O)\CCN)=C(O)O","InChI=1S/C10H16N4O3/c1-14-6-12-5-7(14)4-8(10(16)17)13-9(15)2-3-11/h5-6,16-17H,2-4,11H2,1H3,(H,13,15)","MAPCBGPQHARUJY-UHFFFAOYSA-N","?, ?","22","potentiometric","a2/apparent","?, ?","basic",8.305
"15383","N#CC(C1(=CC=CC=C1))(C2(=CC=CC=C2))CCN(C)C","CN(C)CCC(C#N)(C1C=CC=CC=1)C1C=CC=CC=1","InChI=1S/C18H20N2/c1-20(2)14-13-18(15-19,16-9-5-3-6-10-16)17-11-7-4-8-12-17/h3-12H,13-14H2,1-2H3","SZOCKYDZSPRJPT-UHFFFAOYSA-N","?","25","potentiometric","a/apparent","NH+","basic",8.31
"16457","N#CC(C1(=CC=CC=C1))(C2(=CC=CC=C2))CC(N(C)C)C","CC(CC(C#N)(C1C=CC=CC=1)C1C=CC=CC=1)N(C)C","InChI=1S/C19H22N2/c1-16(21(2)3)14-19(15-20,17-10-6-4-7-11-17)18-12-8-5-9-13-18/h4-13,16H,14H2,1-3H3","GJJQIGFCGLPOQK-UHFFFAOYSA-N","?","25","potentiometric","a/apparent","?","basic",8.31
"11903","O=C(OC(CN(C)C)C)C","CC(CN(C)C)OC(=C)O","InChI=1S/C7H15NO2/c1-6(5-8(3)4)10-7(2)9/h6,9H,2,5H2,1,3-4H3","YUHMGRKXGSGUIM-UHFFFAOYSA-N","?","25","mean from 2","a1/apparent","?","basic",8.31
"12733","N1(C2(CCCC12))(C(C)C)","CC(C)N1C2CCCC12","InChI=1S/C8H15N/c1-6(2)9-7-4-3-5-8(7)9/h6-8H,3-5H2,1-2H3","ZDLLZJXEZHLETJ-UHFFFAOYSA-N","?","25","mean from 2","a1/apparent","NH","basic",8.31
"14108","O=C(OCCN(C)C)CCC","CCC=C(O)OCCN(C)C","InChI=1S/C8H17NO2/c1-4-5-8(10)11-7-6-9(2)3/h5,10H,4,6-7H2,1-3H3","OJMWESQCHJZCDD-UHFFFAOYSA-N","?","25","potentiometric","a/thermodynamic","?","basic",8.31
"11874","N(CC=C)(CC=C)CC=C","C=CCN(CC=C)CC=C","InChI=1S/C9H15N/c1-4-7-10(8-5-2)9-6-3/h4-6H,1-3,7-9H2","VPYJNCGUESNPMV-UHFFFAOYSA-N","?","25","potentiometric","a/thermodynamic","?","basic",8.31
"12200","O=C(OCC)CC(N)C1(=CC=CC=C1)","CCOC(O)=CC(N)C1C=CC=CC=1","InChI=1S/C11H15NO2/c1-2-14-11(13)8-10(12)9-6-4-3-5-7-9/h3-8,10,13H,2,12H2,1H3","JVRUUCKXXFYMEX-UHFFFAOYSA-N","?","20","potentiometric","b/apparent","?","basic",8.32
"11857","N(CC#CCNCC)CC","CCNCC#CCNCC","InChI=1S/C8H16N2/c1-3-9-7-5-6-8-10-4-2/h9-10H,3-4,7-8H2,1-2H3","DHLUQZDOGQUIOO-UHFFFAOYSA-N","?","25",,"a1/apparent","NH2(1+)","basic",8.32
"15587","S1(N=C(SN=C1N2(CCOCC2))C3(=CC=CC=C3))","C1CN(CCO1)C1=NSC(=NS1)C1C=CC=CC=1","InChI=1S/C12H13N3OS2/c1-2-4-10(5-3-1)11-13-18-12(14-17-11)15-6-8-16-9-7-15/h1-5H,6-9H2","JTQBVADRAHBUPK-UHFFFAOYSA-N","?","25",,"a1/apparent","RR'NH(1+)","basic",8.33
"17686","N(CCC#C)(C)C","CN(C)CCC#C","InChI=1S/C6H11N/c1-4-5-6-7(2)3/h1H,5-6H2,2-3H3","WSCWSMUKWIYUFV-UHFFFAOYSA-N","?",,"potentiometric","a/apparent","?","basic",8.33
"11030","NC1(C(N)CC2(CCCCC2(C1)))","NC1CC2CCCCC2CC1N","InChI=1S/C10H20N2/c11-9-5-7-3-1-2-4-8(7)6-10(9)12/h7-10H,1-6,11-12H2","LEHVFMWPPKBCDK-UHFFFAOYSA-N","?, ?, ?, ?, ?, ?","25","potentiometric","a2/apparent","?, ?, ?, ?, ?, ?","basic",8.331666666666667
"15338","[S-]C1(=NC(=NC2(=C1N=CN2C3(OC(CO)C(C3O)O)))N)","NC1N=C2C(N=CN2C2OC(CO)C(O)C2O)=C(S)N=1","InChI=1S/C10H13N5O4S/c11-10-13-7-4(8(20)14-10)12-2-15(7)9-6(18)5(17)3(1-16)19-9/h2-3,5-6,9,16-18H,1H2,(H3,11,13,14,20)","OTDJAMXESTUWLO-UHFFFAOYSA-N","?","23","mean from 2","a/apparent","?","basic",8.34
"10708","ClC1(=CC([N+](=O)[O-])=C(CN)C=C1)","NCC1C=CC(Cl)=CC=1[N+]([O-])=O","InChI=1S/C7H7ClN2O2/c8-6-2-1-5(4-9)7(3-6)10(11)12/h1-3H,4,9H2","RYMNWMZBAABHMY-UHFFFAOYSA-N","?","25","potentiometric","a1/apparent","?","basic",8.34
"16987","N(CC1(C(N)C2(CCC1C2(C)(C))(C)))(C)C","CC1(C)C2CCC1(C)C(N)C2CN(C)C","InChI=1S/C13H26N2/c1-12(2)10-6-7-13(12,3)11(14)9(10)8-15(4)5/h9-11H,6-8,14H2,1-5H3","FANXZSFCHXEAAY-UHFFFAOYSA-N","?, ?, ?, ?","25",,"a2/apparent","?, ?, ?, ?","basic",8.344999999999999
"16735","FCCN3(C1(C(C(C=2(C=C(O)C=CC=2(C1)))(C)CC3)C))","CC1C2CC3C=CC(O)=CC=3C1(C)CCN2CCF","InChI=1S/C16H22FNO/c1-11-15-9-12-3-4-13(19)10-14(12)16(11,2)5-7-18(15)8-6-17/h3-4,10-11,15,19H,5-9H2,1-2H3","RTUGCWJKYIZMNR-UHFFFAOYSA-N","?","24","potentiometric","a1/apparent","?","basic",8.35
"14768","O=C(OC1(C(=C)C7(CC2(C15(C(C4(N6(CC3(C(C24(C(OC(=O)C)C(OC(=O)C)C3))C6(C5))(C))))C7))(O))))C","CC12CC(OC(=C)O)C(OC(=C)O)C34C5C6CC7CC3(O)C6(CC(C41)N5C2)C(OC(=C)O)C7=C","InChI=1S/C26H33NO7/c1-11-15-6-16-20-26-19-17(8-24(16,25(26,31)7-15)21(11)33-13(3)29)27(20)10-23(19,5)9-18(32-12(2)28)22(26)34-14(4)30/h15-22,28-31H,1-4,6-10H2,5H3","TYOCVEZGQYSBGV-UHFFFAOYSA-N","?",,,"a/apparent","NH+","basic",8.35
"10701","S(=O)(=O)(N)C1(=CC=C(CN)C=C1)","NCC1=CC=C(C=C1)S(N)(=O)=O","InChI=1S/C7H10N2O2S/c8-5-6-1-3-7(4-2-6)12(9,10)11/h1-4H,5,8H2,(H2,9,10,11)","TYMRLRRVMHJFTF-UHFFFAOYSA-N","?","20","mean from 2","b/thermodynamic","?","basic",8.35
"15247","O=[N+]([O-])C2(=CC=C(C(O)CNC(CC1(=C(C(C)(C)CC1)C))C)C=C2)","CC1=C(CC(C)NCC(O)C2C=CC(=CC=2)[N+]([O-])=O)CCC1(C)C","InChI=1S/C19H28N2O3/c1-13(11-16-9-10-19(3,4)14(16)2)20-12-18(22)15-5-7-17(8-6-15)21(23)24/h5-8,13,18,20,22H,9-12H2,1-4H3","MABBOOWYIUCNCX-UHFFFAOYSA-N","?",,"potentiometric","a1/apparent","NH2(+)","basic",8.36
"16034","[NH2+](CCCN)CCCCCCCCCCCC","CCCCCCCCCCCCNCCCN","InChI=1S/C15H34N2/c1-2-3-4-5-6-7-8-9-10-11-14-17-15-12-13-16/h17H,2-16H2,1H3","XMMDVXFQGOEOKH-UHFFFAOYSA-N","?","25",,"a1/apparent","?","basic",8.37
"10432","S(CCN)CCCC","CCCCSCCN","InChI=1S/C6H15NS/c1-2-3-5-8-6-4-7/h2-7H2,1H3","PQKHJKIUTWBNGR-UHFFFAOYSA-N","?","17","potentiometric","b/apparent","?","basic",8.37
"17801","N1(=C(NC=C1C)C)","CC1NC=C(C)N=1","InChI=1S/C5H8N2/c1-4-3-6-5(2)7-4/h3H,1-2H3,(H,6,7)","LLPKQRMDOFYSGZ-UHFFFAOYSA-N","?","24","mean from 2","a/thermodynamic","?","basic",8.39
"13728","N2(CC=1(NC=3(C=CC=CC=3(C=1CC2))))","C1NCCC2C3C=CC=CC=3NC=21","InChI=1S/C11H12N2/c1-2-4-10-8(3-1)9-5-6-12-7-11(9)13-10/h1-4,12-13H,5-7H2","CFTOTSJVQRFXOF-UHFFFAOYSA-N","?","25","spectrophotometric","a1/apparent","NH","basic",8.4
"16984","N=1(C(C(C)=CC=1C)=CC=2(NC(C)=CC=2C))","CC1C=C(C)C(=CC2NC(C)=CC=2C)N=1","InChI=1S/C13H16N2/c1-8-5-10(3)14-12(8)7-13-9(2)6-11(4)15-13/h5-7,14H,1-4H3","VEDYKOPETFAIJI-UHFFFAOYSA-N","?","22","spectrophotometric","a/apparent","?","basic",8.4
"15236","O=C(C1(=CC=CC=C1))CCCN3(CCC(O)(C2(=CC=CC=C2))CC3)","OC(=CCCN1CCC(O)(CC1)C1C=CC=CC=1)C1C=CC=CC=1","InChI=1S/C21H25NO2/c23-20(18-8-3-1-4-9-18)12-7-15-22-16-13-21(24,14-17-22)19-10-5-2-6-11-19/h1-6,8-12,23-24H,7,13-17H2","AZCHEHBOBCNEED-UHFFFAOYSA-N","?","25","potentiometric","a/apparent","NH%+&","basic",8.4
"15818","ClC3(=CC2(=NC=1(C(=CC(OC)=CC=1)C(=C2C=C3)NC(CN(CC)CC)C)))","COC1C=C2C(NC(C)CN(CC)CC)=C3C=CC(Cl)=CC3=NC2=CC=1","InChI=1S/C21H26ClN3O/c1-5-25(6-2)13-14(3)23-21-17-9-7-15(22)11-20(17)24-19-10-8-16(26-4)12-18(19)21/h7-12,14H,5-6,13H2,1-4H3,(H,23,24)","OGLOZAOTVVGSCI-UHFFFAOYSA-N","?, ?","30","potentiometric","a2/apparent","?, ?","basic",8.4
"16567","ClC3(=C(NC1(=C(C=CC=C1)CC(=O)OCCCCN2(CCOCC2)))C(Cl)=CC=C3)","OC(=CC1C=CC=CC=1NC1=C(Cl)C=CC=C1Cl)OCCCCN1CCOCC1","InChI=1S/C22H26Cl2N2O3/c23-18-7-5-8-19(24)22(18)25-20-9-2-1-6-17(20)16-21(27)29-13-4-3-10-26-11-14-28-15-12-26/h1-2,5-9,16,25,27H,3-4,10-15H2","QOAAQOIFBTWXHQ-UHFFFAOYSA-N","?","25","potentiometric","a1/apparent","N-H","basic",8.4
"14138","ON=C(C(=NO)C)CN(C)C","CC(N=O)C(CN(C)C)N=O","InChI=1S/C6H13N3O2/c1-5(7-10)6(8-11)4-9(2)3/h5-6H,4H2,1-3H3","BUBORVWZFXYFRL-UHFFFAOYSA-N","?","25","potentiometric","a1/apparent","?","basic",8.4
"10488","O=CC(N(C)C)(C)C","CN(C)C(C)(C)C=O","InChI=1S/C6H13NO/c1-6(2,5-8)7(3)4/h5H,1-4H3","HQVOWZWVYHHPHA-UHFFFAOYSA-N","?","21","spectrophotometric","a1/apparent","?","basic",8.4
"11563","O(C1(=NC([O-])=CC(=N1)C))C","CC1C=C(O)N=C(N=1)OC","InChI=1S/C6H8N2O2/c1-4-3-5(9)8-6(7-4)10-2/h3H,1-2H3,(H,7,8,9)","CRYUGFDHGVCIJW-UHFFFAOYSA-N","?",,"potentiometric","a2/apparent","?","basic",8.4
"12380","N1(CCC(N)CC1)(CC2(=CC=CC=C2))","NC1CCN(CC2C=CC=CC=2)CC1","InChI=1S/C12H18N2/c13-12-6-8-14(9-7-12)10-11-4-2-1-3-5-11/h1-5,12H,6-10,13H2","YUBDLZGUSSWQSS-UHFFFAOYSA-N","?, ?","22","potentiometric","a1/apparent","?, ?","basic",8.42
"15334","O(C1(CC=C3(CCN2(C3(C1)(C(=CCO)C(CO)CC2)))))C","COC1CC=C2CCN3CCC(CO)C(=CCO)C32C1","InChI=1S/C16H25NO3/c1-20-14-3-2-13-5-8-17-7-4-12(11-19)15(6-9-18)16(13,17)10-14/h2,6,12,14,18-19H,3-5,7-11H2,1H3","HACFIVMDZKLBKI-UHFFFAOYSA-N","?",,"potentiometric","a/apparent","NH+","basic",8.42
"11324","S(CCN(CC)CC)CCCC","CCCCSCCN(CC)CC","InChI=1S/C10H23NS/c1-4-7-9-12-10-8-11(5-2)6-3/h4-10H2,1-3H3","DMFWTLBQLIMYLP-UHFFFAOYSA-N","?","17","potentiometric","b/apparent","?","basic",8.43
"11980","[O-]C2(=NC=1(N=CNC=1C=N2))","OC1=NC2N=CNC=2C=N1","InChI=1S/C5H4N4O/c10-5-6-1-3-4(9-5)8-2-7-3/h1-2H,(H2,6,7,8,9,10)","CRIZPXKICGBNKG-UHFFFAOYSA-N","?","20","potentiometric","a2/apparent","?","basic",8.43
"11260","[O-]C1(=NC(=NC2(=C1N(C=N2)C))N)","CN1C=NC2N=C(N)N=C(O)C1=2","InChI=1S/C6H7N5O/c1-11-2-8-4-3(11)5(12)10-6(7)9-4/h2H,1H3,(H3,7,9,10,12)","FZWGECJQACGGTI-UHFFFAOYSA-N","?","22","mean from 2","a3/apparent","?","basic",8.43
"13935","O2(C1(=NC([O-])=CC(=C1CC2)C))","CC1=CC(O)=NC2OCCC=21","InChI=1S/C8H9NO2/c1-5-4-7(10)9-8-6(5)2-3-11-8/h4H,2-3H2,1H3,(H,9,10)","IVBKRUDIWDASEH-UHFFFAOYSA-N","?","20","mean from 2","a2/apparent","?","basic",8.44
"12426","O=C([O-])C=2(C1(=NC=CC=C1C(N)=CC=2))","NC1=CC=C(C(O)=O)C2=NC=CC=C21","InChI=1S/C10H8N2O2/c11-8-4-3-7(10(13)14)9-6(8)2-1-5-12-9/h1-5H,11H2,(H,13,14)","HPYOTWIJFUEKRW-UHFFFAOYSA-N","?","25","potentiometric","a/thermodynamic","?","basic",8.46