"Molecule name","OriginalSmiles","Canonical_QSARr","InChI_Code_QSARr","InChI Key_QSARr","Salt_Solvent (Concatenate)","temp","method","type","group","basicOrAcidic","pKa"
"17469","OCCN(C)C","CN(C)CCO","InChI=1S/C4H11NO/c1-5(2)3-4-6/h6H,3-4H2,1-2H3","UEEJHVSXFDXPFK-UHFFFAOYSA-N","?","24","mean from 4","a1/apparent","N-H","basic",9.36
"10485","O(CCCN(C)C)C","COCCCN(C)C","InChI=1S/C6H15NO/c1-7(2)5-4-6-8-3/h4-6H2,1-3H3","VIVLBCLZNBHPGE-UHFFFAOYSA-N","?","25",,"a1/apparent","?","basic",9.36
"10183","NCC1(=CC=CC=C1)","NCC1C=CC=CC=1","InChI=1S/C7H9N/c8-6-7-4-2-1-3-5-7/h1-5H,6,8H2","WGQKYBSKWIADBV-UHFFFAOYSA-N","?","24","mean from 13","b1/apparent","NH%+&","basic",9.36
"14523","OC1(=CC=C(CCNC)C=C1)","CNCCC1C=CC(O)=CC=1","InChI=1S/C9H13NO/c1-10-7-6-8-2-4-9(11)5-3-8/h2-5,10-11H,6-7H2,1H3","AXVZFRBSCNEKPQ-UHFFFAOYSA-N","?",,"potentiometric","a1/apparent","?","basic",9.36
"17783","N1(CCC(N)CC1)","NC1CCNCC1","InChI=1S/C5H12N2/c6-5-1-3-7-4-2-5/h5,7H,1-4,6H2","BCIIMDOZSUCSEN-UHFFFAOYSA-N","?, ?","22","potentiometric","a1/apparent","?, ?","basic",9.365
"13197","O=C(NCCN(CC)CC)C(=C)C","CC(=C)C(=O)NCCN(CC)CC","InChI=1S/C10H20N2O/c1-5-12(6-2)8-7-11-10(13)9(3)4/h3,5-8H2,1-2,4H3,(H,11,13)","GVBMMNAPRZDGEY-UHFFFAOYSA-N","?","25","potentiometric","a1/apparent","?","basic",9.37
"11718","O=C([O-])C(N)CC1(C(=C)C1)","C=C1CC1CC(=N)C(O)O","InChI=1S/C7H11NO2/c1-4-2-5(4)3-6(8)7(9)10/h5,7-10H,1-3H2","XQDNTGKOVMTIOM-UHFFFAOYSA-N","?",,,"a2/apparent","?","basic",9.37
"12991","NCC1(=CC(=CC=C1)C)","CC1C=C(CN)C=CC=1","InChI=1S/C8H11N/c1-7-3-2-4-8(5-7)6-9/h2-5H,6,9H2,1H3","RGXUCUWVGKLACF-UHFFFAOYSA-N","?","25","potentiometric","b/apparent","?","basic",9.37
"17010","O=C([O-])C(N)CC=2(C1(=C(C=CC=C1)NC=2))","N=C(CC1=CNC2=CC=CC=C21)C(O)O","InChI=1S/C11H12N2O2/c12-9(11(14)15)5-7-6-13-10-4-2-1-3-8(7)10/h1-4,6,11-15H,5H2","QJLGZJCORWFGHV-UHFFFAOYSA-N","?, ?","22","mean from 6","a2/thermodynamic","N-H, NH3%+&","basic",9.375
"13198","O=C(NC(CCN(C)C)(C)C)C=C","CN(C)CCC(C)(C)NC(=O)C=C","InChI=1S/C10H20N2O/c1-6-9(13)11-10(2,3)7-8-12(4)5/h6H,1,7-8H2,2-5H3,(H,11,13)","OCMFIRSRLNISHF-UHFFFAOYSA-N","?","25","potentiometric","a1/apparent","?","basic",9.39
"10813","O(C1(=C(OC)C=CC(=C1)CN))C","COC1C=CC(CN)=CC=1OC","InChI=1S/C9H13NO2/c1-11-8-4-3-7(6-10)5-9(8)12-2/h3-5H,6,10H2,1-2H3","DIVNUTGTTIRPQA-UHFFFAOYSA-N","?","25","potentiometric","a/thermodynamic","?","basic",9.39
"13211","OC(CN(C(C)(C)C)CCO)CC","CCC(O)CN(CCO)C(C)(C)C","InChI=1S/C10H23NO2/c1-5-9(13)8-11(6-7-12)10(2,3)4/h9,12-13H,5-8H2,1-4H3","XAJJTPSGQYCQIG-UHFFFAOYSA-N","?","20","potentiometric","a1/apparent","-NH3%+&","basic",9.4
"13681","OC1(=CC=C(CCCC(N)C)C=C1)","CC(N)CCCC1C=CC(O)=CC=1","InChI=1S/C11H17NO/c1-9(12)3-2-4-10-5-7-11(13)8-6-10/h5-9,13H,2-4,12H2,1H3","ZWXITDUYPSNPNL-UHFFFAOYSA-N","?","25","potentiometric","b/apparent","?","basic",9.4
"15733","N(CCC(C1(=CC=CC=C1))C2(=CC=CC=C2))(C)C","CN(C)CCC(C1C=CC=CC=1)C1C=CC=CC=1","InChI=1S/C17H21N/c1-18(2)14-13-17(15-9-5-3-6-10-15)16-11-7-4-8-12-16/h3-12,17H,13-14H2,1-2H3","YHDCGYWZEFIUHE-UHFFFAOYSA-N","?","25","potentiometric","a/apparent","?","basic",9.4
"16789","OC(CN(CC(O)C)CCCCCCCCCCCCCCCCCC)C","CCCCCCCCCCCCCCCCCCN(CC(C)O)CC(C)O","InChI=1S/C24H51NO2/c1-4-5-6-7-8-9-10-11-12-13-14-15-16-17-18-19-20-25(21-23(2)26)22-24(3)27/h23-24,26-27H,4-22H2,1-3H3","WPNICNOCPSBYTR-UHFFFAOYSA-N","?",,"potentiometric","a/apparent","prot.","basic",9.4
"10626","N1(=C(N=C(N)N=C1N)NC(=N)N)","NC1=NC(NC(N)=N)=NC(N)=N1","InChI=1S/C4H8N8/c5-1(6)9-4-11-2(7)10-3(8)12-4/h(H8,5,6,7,8,9,10,11,12)","QLVPICNVQBBOQP-UHFFFAOYSA-N","?",,"mean from 2","a/apparent","?","basic",9.4
"10297","[Br]C1(=C([O-])C=CN=C1)","OC1C=CN=CC=1Br","InChI=1S/C5H4BrNO/c6-4-3-7-2-1-5(4)8/h1-3H,(H,7,8)","JWHZKNRXTDYNJO-UHFFFAOYSA-N","?","25","mean from 2","a1/apparent","N-H","basic",9.4
"11169","O=C(OC)C1(C2(CCN(C1)CC2))","COC(O)=C1CN2CCC1CC2","InChI=1S/C9H15NO2/c1-12-9(11)8-6-10-4-2-7(8)3-5-10/h7,11H,2-6H2,1H3","VSFGZOMVWSANJG-UHFFFAOYSA-N","?","25",,"a/apparent","NH%+&","basic",9.4
"14916","O=C([O-])C1(NCC(C1CC(=O)OC)C(O)C)","CC(O)C1CN=C(C1C=C(O)OC)C(O)O","InChI=1S/C10H17NO5/c1-5(12)7-4-11-9(10(14)15)6(7)3-8(13)16-2/h3,5-7,10,12-15H,4H2,1-2H3","SDHPNHLAOIMRHB-UHFFFAOYSA-N","?",,,"a2/apparent","?","basic",9.41
"17548","S(CCN)C","CSCCN","InChI=1S/C3H9NS/c1-5-3-2-4/h2-4H2,1H3","CYWGSFFHHMQKET-UHFFFAOYSA-N","?","26","mean from 4","b/apparent","?","basic",9.41
"10812","O(C1(=C(OC)C=CC=C1CN))C","COC1C=CC=C(CN)C=1OC","InChI=1S/C9H13NO2/c1-11-8-5-3-4-7(6-10)9(8)12-2/h3-5H,6,10H2,1-2H3","LVMPWFJVYMXSNY-UHFFFAOYSA-N","?","25","potentiometric","a/thermodynamic","?","basic",9.41
"15557","OC3(=CC1(=C(CC2(N(CC)CCC1(C2(C))C))C=C3))","CC1C2CC3C=CC(O)=CC=3C1(C)CCN2CC","InChI=1S/C16H23NO/c1-4-17-8-7-16(3)11(2)15(17)9-12-5-6-13(18)10-14(12)16/h5-6,10-11,15,18H,4,7-9H2,1-3H3","ZMAYVLNGIHEQKO-UHFFFAOYSA-N","?","24","potentiometric","a1/apparent","?","basic",9.42
"10323","[O-]C1(=NC(=NC=C1)N)","NC1=NC(O)=CC=N1","InChI=1S/C4H5N3O/c5-4-6-2-1-3(8)7-4/h1-2H,(H3,5,6,7,8)","XQCZBXHVTFVIFE-UHFFFAOYSA-N","?","25","potentiometric","apparent","?","basic",9.42
"10377","N(CC(CNC)C)C","CC(CNC)CNC","InChI=1S/C6H16N2/c1-6(4-7-2)5-8-3/h6-8H,4-5H2,1-3H3","GDJIVWPKHAWKIO-UHFFFAOYSA-N","?, ?","22","potentiometric","a1/apparent","?, ?","basic",9.42
"17912","[O-]C1(=NNC(=N1)C)","CC1NN=C(O)N=1","InChI=1S/C3H5N3O/c1-2-4-3(7)6-5-2/h1H3,(H2,4,5,6,7)","XLSXXXARCKJHOR-UHFFFAOYSA-N","?",,"potentiometric","a/apparent","?","basic",9.43
"17571","OCC(N)C","CC(N)CO","InChI=1S/C3H9NO/c1-3(4)2-5/h3,5H,2,4H2,1H3","BKMMTJMQCTUHRP-UHFFFAOYSA-N","?","25","potentiometric","b/apparent","?","basic",9.43
"17711","O(CCO)CCN","NCCOCCO","InChI=1S/C4H11NO2/c5-1-3-7-4-2-6/h6H,1-5H2","GIAFURWZWWWBQT-UHFFFAOYSA-N","?","25","mean from 2","a1/apparent","?","basic",9.43
"14140","O=C(NCCN(C)C)C=N[O-]","CN(C)CCNC(=O)CN=O","InChI=1S/C6H13N3O2/c1-9(2)4-3-7-6(10)5-8-11/h3-5H2,1-2H3,(H,7,10)","QOFINELSJSPTKC-UHFFFAOYSA-N","?","25","potentiometric","a2/apparent","?","basic",9.43
"10203","N(=C1(CCCCC1))C","CN=C1CCCCC1","InChI=1S/C7H13N/c1-8-7-5-3-2-4-6-7/h2-6H2,1H3","FFDQGRWCKILEIP-UHFFFAOYSA-N","?",,"potentiometric","a/apparent","?","basic",9.43
"11033","N=1(C=2(C(C(N)=CC=1C)=CC=CC=2))","CC1C=C(N)C2=CC=CC=C2N=1","InChI=1S/C10H10N2/c1-7-6-9(11)8-4-2-3-5-10(8)12-7/h2-6H,1H3,(H2,11,12)","COCFIBRMFPWUDW-UHFFFAOYSA-N","?","20","potentiometric","a/apparent","?","basic",9.44
"10112","N1(=C(C=C(N)C=C1)C)","CC1C=C(N)C=CN=1","InChI=1S/C6H8N2/c1-5-4-6(7)2-3-8-5/h2-4H,1H3,(H2,7,8)","GNCLPNMQEGMNTG-UHFFFAOYSA-N","?","30",,"a1/apparent","N-H","basic",9.44
"11364","O1(C3(C2(N(CCC2(C1))CC3)))","C1OC2CCN3CCC1C32","InChI=1S/C8H13NO/c1-3-9-4-2-7-8(9)6(1)5-10-7/h6-8H,1-5H2","MSSYBANBZCAGDC-UHFFFAOYSA-N","?","24","potentiometric","a/apparent","?","basic",9.44
"14691","O(C1(=CC=CC=C1))CC(O)CNC(C)C","CC(C)NCC(O)COC1C=CC=CC=1","InChI=1S/C12H19NO2/c1-10(2)13-8-11(14)9-15-12-6-4-3-5-7-12/h3-7,10-11,13-14H,8-9H2,1-2H3","ONXLHKFGTDDVLQ-UHFFFAOYSA-N","?","20","potentiometric","a1/apparent","?","basic",9.45
"10745","N(CC1(=CC=CC=C1))CCCC","CCCCNCC1C=CC=CC=1","InChI=1S/C11H17N/c1-2-3-9-12-10-11-7-5-4-6-8-11/h4-8,12H,2-3,9-10H2,1H3","HIPXPABRMMYVQD-UHFFFAOYSA-N","?","25","potentiometric","b1/apparent","?","basic",9.46
"16630","O(C=1(C=2(C(C=CC=1)=CC=CC=2)))CC(O)CNC(C)C","CC(C)NCC(O)COC1=CC=CC2=CC=CC=C12","InChI=1S/C16H21NO2/c1-12(2)17-10-14(18)11-19-16-9-5-7-13-6-3-4-8-15(13)16/h3-9,12,14,17-18H,10-11H2,1-2H3","AQHHHDLHHXJYJD-UHFFFAOYSA-N","?","24","mean from 6","a1/apparent","N(+)-H","basic",9.46
"14655","O=C([O-])C1(NCC(C1CC(=O)N)C(=C)C)","CC(=C)C1CN=C(C1CC(=N)O)C(O)O","InChI=1S/C10H16N2O3/c1-5(2)7-4-12-9(10(14)15)6(7)3-8(11)13/h6-7,10,14-15H,1,3-4H2,2H3,(H2,11,13)","ISKJWPWBCHBQMO-UHFFFAOYSA-N","?",,,"a2/apparent","?","basic",9.47
"13012","N(=C1(C(CCCC1)C))C","CN=C1CCCCC1C","InChI=1S/C8H15N/c1-7-5-3-4-6-8(7)9-2/h7H,3-6H2,1-2H3","DBKSIFHGBDIFFN-UHFFFAOYSA-N","?",,"potentiometric","a/apparent","?","basic",9.47
"12225","FC1(=CC(=CC=C1)C(O)CNC(C)C)","CC(C)NCC(O)C1=CC=CC(F)=C1","InChI=1S/C11H16FNO/c1-8(2)13-7-11(14)9-4-3-5-10(12)6-9/h3-6,8,11,13-14H,7H2,1-2H3","IDAZVHMZFWXZDW-UHFFFAOYSA-N","?","20","potentiometric","a/apparent","?","basic",9.48
"15614","N(CC1(=CC=C(C)C=C1))CCCCCCCCC","CC1C=CC(CNCCCCCCCCC)=CC=1","InChI=1S/C17H29N/c1-3-4-5-6-7-8-9-14-18-15-17-12-10-16(2)11-13-17/h10-13,18H,3-9,14-15H2,1-2H3","HTIJNMZRECGVKC-UHFFFAOYSA-N","?",,"potentiometric","a1/apparent","amino","basic",9.48
"17433","S(CCN)CC","CCSCCN","InChI=1S/C4H11NS/c1-2-6-4-3-5/h2-5H2,1H3","HJCTVUWPHAZTLI-UHFFFAOYSA-N","?","17","potentiometric","b/apparent","?","basic",9.48
"14484","O=C([O-])CN=C1(CCCCC1)","OC(O)=CN=C1CCCCC1","InChI=1S/C8H13NO2/c10-8(11)6-9-7-4-2-1-3-5-7/h6,10-11H,1-5H2","XHRGDNYDVIHXRK-UHFFFAOYSA-N","?",,"potentiometric","a/apparent","?","basic",9.48
"12027","N2(CC1(=C(C=CC=C1)CC2))","C1NCCC2C=CC=CC=21","InChI=1S/C9H11N/c1-2-4-9-7-10-6-5-8(9)3-1/h1-4,10H,5-7H2","UWYZHKAOTLEWKK-UHFFFAOYSA-N","?","20","mean from 2","a1/apparent","?","basic",9.48
"13124","OC1(C(N)CCCC1)(C)","CC1(O)CCCCC1N","InChI=1S/C7H15NO/c1-7(9)5-3-2-4-6(7)8/h6,9H,2-5,8H2,1H3","GOMUTBIHKDUNDP-UHFFFAOYSA-N","?","25","potentiometric","b/thermodynamic","?","basic",9.49
"14124","O=C(C(C)(C)C)CCN(C)C","CN(C)CC=C(O)C(C)(C)C","InChI=1S/C9H19NO/c1-9(2,3)8(11)6-7-10(4)5/h6,11H,7H2,1-5H3","QYAWPBXDTCWKTG-UHFFFAOYSA-N","?","30",,"a1/apparent","?","basic",9.49
"12296","OC(CN(C(C)(C)C)CC(O)C)CC","CC(O)CN(CC(O)CC)C(C)(C)C","InChI=1S/C11H25NO2/c1-6-10(14)8-12(7-9(2)13)11(3,4)5/h9-10,13-14H,6-8H2,1-5H3","YBAKGXBJLPNXBF-UHFFFAOYSA-N","?","20","potentiometric","a1/apparent","-NH3%+&","basic",9.5
"15876","O(C3(=CC=2(C(=NC(C=CC1(=CC=CC=C1))=CC=2N)C=C3)))CC","CCOC1=CC2=C(N)C=C(C=CC3C=CC=CC=3)N=C2C=C1","InChI=1S/C19H18N2O/c1-2-22-16-10-11-19-17(13-16)18(20)12-15(21-19)9-8-14-6-4-3-5-7-14/h3-13H,2H2,1H3,(H2,20,21)","LBLPYDNNNUGFFZ-UHFFFAOYSA-N","?","20",,"a/apparent","?","basic",9.5
"15228","O(C3(=CC=2(C(=NC(C=CC=CC1(=CC=CC=C1))=CC=2N)C=C3)))CC","CCOC1=CC2=C(N)C=C(C=CC=CC3C=CC=CC=3)N=C2C=C1","InChI=1S/C21H20N2O/c1-2-24-18-12-13-21-19(15-18)20(22)14-17(23-21)11-7-6-10-16-8-4-3-5-9-16/h3-15H,2H2,1H3,(H2,22,23)","QPUOGCYSPBZBBZ-UHFFFAOYSA-N","?","20",,"a/apparent","?","basic",9.5
"13112","OC1(C(N)CC(C)CC1)","CC1CCC(O)C(N)C1","InChI=1S/C7H15NO/c1-5-2-3-7(9)6(8)4-5/h5-7,9H,2-4,8H2,1H3","YUUPBWOVKNLYIW-UHFFFAOYSA-N","?","25","mean from 2","b/thermodynamic","?","basic",9.5
"12703","N(CCCN)CCCN","NCCCNCCCN","InChI=1S/C6H17N3/c7-3-1-5-9-6-2-4-8/h9H,1-8H2","OTBHHUPVCYLGQO-UHFFFAOYSA-N","?, ?, ?","30","mean from 2","a3/apparent","?, ?, ?","basic",9.506666666666668
"11132","N1(CCCC1)(CC2(=CC=CC=C2))","C(C1C=CC=CC=1)N1CCCC1","InChI=1S/C11H15N/c1-2-6-11(7-3-1)10-12-8-4-5-9-12/h1-3,6-7H,4-5,8-10H2","CWEGCQIIDCZZED-UHFFFAOYSA-N","?",,"potentiometric","b/apparent","?","basic",9.51
"12992","NCC1(=CC=C(C)C=C1)","CC1=CC=C(CN)C=C1","InChI=1S/C8H11N/c1-7-2-4-8(6-9)5-3-7/h2-5H,6,9H2,1H3","HMTSWYPNXFHGEP-UHFFFAOYSA-N","?","25","mean from 2","a1/apparent","?","basic",9.51
"13671","OC(C1(=CC=CC=C1))C(N(C)C)C","CC(C(O)C1C=CC=CC=1)N(C)C","InChI=1S/C11H17NO/c1-9(12(2)3)11(13)10-7-5-4-6-8-10/h4-9,11,13H,1-3H3","FMCGSUUBYTWNDP-UHFFFAOYSA-N","?, ?, ?","20","potentiometric","a1/apparent","N-H, ?, ?","basic",9.513333333333334
"16499","N=1(C=2(C(C(NC(CCCN(CC)CC)C)=CC=1)=CC=CC=2))","CC(CCCN(CC)CC)NC1=CC=NC2=CC=CC=C21","InChI=1S/C18H27N3/c1-4-21(5-2)14-8-9-15(3)20-18-12-13-19-17-11-7-6-10-16(17)18/h6-7,10-13,15H,4-5,8-9,14H2,1-3H3,(H,19,20)","CAUPTGHSTDHRCZ-UHFFFAOYSA-N","?, ?","25","mean from 2","a1/apparent","?, ?","basic",9.515
"14895","O=C([O-])C1(NCC(C1CC(=O)OC)C(=C)C)","CC(=C)C1CN=C(C1C=C(O)OC)C(O)O","InChI=1S/C11H17NO4/c1-6(2)8-5-12-10(11(14)15)7(8)4-9(13)16-3/h4,7-8,11,13-15H,1,5H2,2-3H3","WGRRQLUYFIJJJA-UHFFFAOYSA-N","?",,,"a2/apparent","?","basic",9.52
"16996","[Br]C=1(C=2(C(C=[N+](C=1)CCCN)=CC=CC=2))","NCCC[N+]1=CC2=CC=CC=C2C(Br)=C1","InChI=1S/C12H14BrN2/c13-12-9-15(7-3-6-14)8-10-4-1-2-5-11(10)12/h1-2,4-5,8-9H,3,6-7,14H2/q+1","COWCOJZVECTZBG-UHFFFAOYSA-N","?","25","mean from 3","a1/apparent","N-H","basic",9.53
"14908","O=C(OC1(=CC=C(C)C=C1))CCCN(C)C","CC1C=CC(=CC=1)OC(O)=CCCN(C)C","InChI=1S/C13H19NO2/c1-11-6-8-12(9-7-11)16-13(15)5-4-10-14(2)3/h5-9,15H,4,10H2,1-3H3","ABKODAREIOGZOM-UHFFFAOYSA-N","?","20","potentiometric","a1/apparent","NMe2","basic",9.53
"17549","[Se](CCN)C","C[Se]CCN","InChI=1S/C3H9NSe/c1-5-3-2-4/h2-4H2,1H3","BXWAZYIUOZTYEL-UHFFFAOYSA-N","?","22","potentiometric","a1/apparent","?","basic",9.53
"16774","O=C(N)CC1(=CC=C(OCC(O)CNC(C)C)C=C1)","CC(C)NCC(O)COC1=CC=C(CC(=N)O)C=C1","InChI=1S/C14H22N2O3/c1-10(2)16-8-12(17)9-19-13-5-3-11(4-6-13)7-14(15)18/h3-6,10,12,16-17H,7-9H2,1-2H3,(H2,15,18)","METKIMKYRPQLGS-UHFFFAOYSA-N","?, ?","25","mean from 2","b1/apparent","?, ?","basic",9.535
"10269","OC1(C(N)CCCC1)","NC1CCCCC1O","InChI=1S/C6H13NO/c7-5-3-1-2-4-6(5)8/h5-6,8H,1-4,7H2","PQMCFTMVQORYJC-UHFFFAOYSA-N","?, ?","25","mean from 2","b/thermodynamic","?, ?","basic",9.535
"11036","N1(NC2(CCC1CC2))(C(C)(C)C)","CC(C)(C)N1NC2CCC1CC2","InChI=1S/C10H20N2/c1-10(2,3)12-9-6-4-8(11-12)5-7-9/h8-9,11H,4-7H2,1-3H3","YZHYLWMVDPFCHG-UHFFFAOYSA-N","?","24","spectrophotometric","a1/apparent","NH%+&*","basic",9.54
"16482","ClC1(=C([O-])C(=C(OC)C=C1)C(=O)NCC2(N(CCC2)CC))","CCN1CCCC1CNC(=O)C1C(O)=C(Cl)C=CC=1OC","InChI=1S/C15H21ClN2O3/c1-3-18-8-4-5-10(18)9-17-15(20)13-12(21-2)7-6-11(16)14(13)19/h6-7,10,19H,3-5,8-9H2,1-2H3,(H,17,20)","GNUARZZEUPYJBU-UHFFFAOYSA-N","?","25","potentiometric","a2/apparent","NH","basic",9.54
"15416","O=C(NCC1(N(CCC1)CC))C2(=C(OC)C=CC=C2[O-])","CCN1CCCC1CNC(=O)C1=C(O)C=CC=C1OC","InChI=1S/C15H22N2O3/c1-3-17-9-5-6-11(17)10-16-15(19)14-12(18)7-4-8-13(14)20-2/h4,7-8,11,18H,3,5-6,9-10H2,1-2H3,(H,16,19)","MVWKVVFFVMXULU-UHFFFAOYSA-N","?","25","potentiometric","a2/apparent","NH","basic",9.54
"15206","S(=O)(=O)(NCCCN(CC)CC)C1(=C(OC)C(OC)=C(OC)C=C1)","COC1C(OC)=C(C=CC=1OC)S(=O)(=O)NCCCN(CC)CC","InChI=1S/C16H28N2O5S/c1-6-18(7-2)12-8-11-17-24(19,20)14-10-9-13(21-3)15(22-4)16(14)23-5/h9-10,17H,6-8,11-12H2,1-5H3","PJEPYNVYILTCKV-UHFFFAOYSA-N","?","20","potentiometric","a1/thermodynamic","amino","basic",9.54
"15960","O=C(NCC1(N(CCC1)CC))C2(=C([O-])C(=CC=C2OC)CC)","COC1=CC=C(CC)C(O)=C1C(=O)NCC1CCCN1CC","InChI=1S/C17H26N2O3/c1-4-12-8-9-14(22-3)15(16(12)20)17(21)18-11-13-7-6-10-19(13)5-2/h8-9,13,20H,4-7,10-11H2,1-3H3,(H,18,21)","YMTZSXGHAFKWEQ-UHFFFAOYSA-N","?","25","potentiometric","a2/apparent","NH","basic",9.54
"15249","O=C(NCC1(N(CCC1)CC))C2(=C(OC)C(=CC(=C2[O-])CC)CC)","COC1C(=C(O)C(CC)=CC=1CC)C(=O)NCC1CCCN1CC","InChI=1S/C19H30N2O3/c1-5-13-11-14(6-2)18(24-4)16(17(13)22)19(23)20-12-15-9-8-10-21(15)7-3/h11,15,22H,5-10,12H2,1-4H3,(H,20,23)","CLYMXDQVLPUPJD-UHFFFAOYSA-N","?","25","potentiometric","a2/apparent","NH","basic",9.54
"17879","O=C([O-])C1(NCC1)","OC(O)C1CCN=1","InChI=1S/C4H7NO2/c6-4(7)3-1-2-5-3/h4,6-7H,1-2H2","QTURBYYMQRBPGI-UHFFFAOYSA-N","?","298","spectrophotometric","a1/apparent","O-H","basic",9.54
"12511","OC1(C#C)(C2(C(NC(C1)C)CCCC2))","CC1CC(O)(C#C)C2CCCCC2N1","InChI=1S/C12H19NO/c1-3-12(14)8-9(2)13-11-7-5-4-6-10(11)12/h1,9-11,13-14H,4-8H2,2H3","CGXPLMNBJQMOOL-UHFFFAOYSA-N","?, ?, ?",,"potentiometric","a/apparent","NH2+, NH2+, NH2+","basic",9.549999999999999
"12216","OC1(=C(C=CC=C1C)CN(CC)CC)","CC1=CC=CC(CN(CC)CC)=C1O","InChI=1S/C12H19NO/c1-4-13(5-2)9-11-8-6-7-10(3)12(11)14/h6-8,14H,4-5,9H2,1-3H3","LDIGJJQBTZCIIT-UHFFFAOYSA-N","?, ?","25","mean from 3","a1/apparent","?, ?","basic",9.55
"16359","O(C1(=C(OC)C=CC2(=C1CN3(CCC4(=C(C3(C2))C=C(OC)C(=C4)O)))))C","COC1C=CC2CC3C4C=C(OC)C(O)=CC=4CCN3CC=2C=1OC","InChI=1S/C20H23NO4/c1-23-18-5-4-12-8-16-14-10-19(24-2)17(22)9-13(14)6-7-21(16)11-15(12)20(18)25-3/h4-5,9-10,16,22H,6-8,11H2,1-3H3","BMCZTYDZHNTKPR-UHFFFAOYSA-N","?","25","spectrophotometric","a1/apparent","?","basic",9.55
"17712","OC(CO)CNC","CNCC(O)CO","InChI=1S/C4H11NO2/c1-5-2-4(7)3-6/h4-7H,2-3H2,1H3","WOMTYMDHLQTCHY-UHFFFAOYSA-N","?","25","potentiometric","a1/apparent","?","basic",9.55
"12022","NC1(CC=2(C=CC=CC=2(C1)))","NC1CC2C=CC=CC=2C1","InChI=1S/C9H11N/c10-9-5-7-3-1-2-4-8(7)6-9/h1-4,9H,5-6,10H2","LMHHFZAXSANGGM-UHFFFAOYSA-N","?","21","mean from 2","a/apparent","?","basic",9.55
"14930","O=C(NC1(=CC=C(CN(C)C)C=C1))C=N[O-]","CN(C)CC1=CC=C(C=C1)NC(=O)CN=O","InChI=1S/C11H15N3O2/c1-14(2)8-9-3-5-10(6-4-9)13-11(15)7-12-16/h3-6H,7-8H2,1-2H3,(H,13,15)","ZJTHBORKDPZQDY-UHFFFAOYSA-N","?","25","potentiometric","a2/apparent","?","basic",9.56
"12197","O=C(OCC)C1(=CC=C(CCN)C=C1)","CCOC(=O)C1C=CC(CCN)=CC=1","InChI=1S/C11H15NO2/c1-2-14-11(13)10-5-3-9(4-6-10)7-8-12/h3-6H,2,7-8,12H2,1H3","RBLUWLZGAZETKS-UHFFFAOYSA-N","?","25","potentiometric","a1/apparent","?","basic",9.58
"12205","O=C(C1(=CC=C([O-])C=C1))CNC(C)C","CC(C)N=CC(O)C1=CC=C(O)C=C1","InChI=1S/C11H15NO2/c1-8(2)12-7-11(14)9-3-5-10(13)6-4-9/h3-8,11,13-14H,1-2H3","BYKKDWQRTQFOIB-UHFFFAOYSA-N","?","20","spectrophotometric","a2/apparent","?","basic",9.58
"15618","O(C1(=C(C=CC=C1)CC=C))CC(O)CNC(C)C","CC(C)NCC(O)COC1C=CC=CC=1CC=C","InChI=1S/C15H23NO2/c1-4-7-13-8-5-6-9-15(13)18-11-14(17)10-16-12(2)3/h4-6,8-9,12,14,16-17H,1,7,10-11H2,2-3H3","PAZJSJFMUHDSTF-UHFFFAOYSA-N","?","25","potentiometric","a1/apparent","NH2(1+)","basic",9.59
"15444","N=1(C=2(C(C(NCCCCN(CC)CC)=CC=1)=CC=CC=2))","CCN(CCCCNC1=CC=NC2=CC=CC=C21)CC","InChI=1S/C17H25N3/c1-3-20(4-2)14-8-7-12-18-17-11-13-19-16-10-6-5-9-15(16)17/h5-6,9-11,13H,3-4,7-8,12,14H2,1-2H3,(H,18,19)","CSJRFBHCOMTVBX-UHFFFAOYSA-N","?, ?","25","potentiometric","a1/apparent","?, ?","basic",9.594999999999999
"11934","N(CCCN)CCCCN","NCCCCNCCCN","InChI=1S/C7H19N3/c8-4-1-2-6-10-7-3-5-9/h10H,1-9H2","ATHGHQPFGPMSJY-UHFFFAOYSA-N","?, ?, ?","25","mean from 2","a1/apparent","NH-, NH-, NH-","basic",9.599999999999998
"13903","N2(C(C1(=CC=CC=C1))CCC2)","C1CCC(N1)C1C=CC=CC=1","InChI=1S/C10H13N/c1-2-5-9(6-3-1)10-7-4-8-11-10/h1-3,5-6,10-11H,4,7-8H2","JUTDHSGANMHVIC-UHFFFAOYSA-N","?",,"potentiometric","b/apparent","?","basic",9.6
"11319","N(C(C#C)(C)C)(C(C)(C)C)CC","CC(C)(C)N(CC)C(C)(C)C#C","InChI=1S/C11H21N/c1-8-11(6,7)12(9-2)10(3,4)5/h1H,9H2,2-7H3","BUNSINGSJHPVBZ-UHFFFAOYSA-N","?","25","potentiometric","a1/apparent","?","basic",9.6
"15594","O=[N+]([O-])C1(=CC=C(OC(=O)CCCN(C)C)C=C1)","CN(C)CCC=C(O)OC1C=CC(=CC=1)[N+]([O-])=O","InChI=1S/C12H16N2O4/c1-13(2)9-3-4-12(15)18-11-7-5-10(6-8-11)14(16)17/h4-8,15H,3,9H2,1-2H3","BBBKHFQMPNBOPP-UHFFFAOYSA-N","?","20","potentiometric","a1/apparent","NMe2","basic",9.6
"12134","N1(CCCCCCNCCCCCC1)","C1CCCCCNCCCCCCN1","InChI=1S/C12H26N2/c1-2-6-10-14-12-8-4-3-7-11-13-9-5-1/h13-14H,1-12H2","UJZPFLZOUSHSMP-UHFFFAOYSA-N","?","20","potentiometric","a/apparent","?","basic",9.6
"13841","O1(N=C2(CCNCCC2(=C1O)))","OC1ON=C2CCNCCC2=1","InChI=1S/C7H10N2O2/c10-7-5-1-3-8-4-2-6(5)9-11-7/h8,10H,1-4H2","ADCZCHGZOJHXPU-UHFFFAOYSA-N","?","25","potentiometric","a2/apparent","?","basic",9.6
"10206","N1(C=C(C)C(C1)C)(C)","CC1CN(C)C=C1C","InChI=1S/C7H13N/c1-6-4-8(3)5-7(6)2/h4,7H,5H2,1-3H3","GSCVMJPACRKDQD-UHFFFAOYSA-N","?",,,"a/apparent","NH+","basic",9.6
"12049","OC2(C1(N(CC=C1C)CC2))","CC1=CCN2CCC(O)C21","InChI=1S/C8H13NO/c1-6-2-4-9-5-3-7(10)8(6)9/h2,7-8,10H,3-5H2,1H3","WZHPCLWXQJYMIQ-UHFFFAOYSA-N","?","25","potentiometric","a/apparent","NH%+&","basic",9.6
"15337","O=C(OC1(CC2(N(C)C(C1)CC2)))C(O)C3(=CC=CC=C3)","CN1C2CC(CC1CC2)OC(O)=C(O)C1C=CC=CC=1","InChI=1S/C16H21NO3/c1-17-12-7-8-13(17)10-14(9-12)20-16(19)15(18)11-5-3-2-4-6-11/h2-6,12-14,18-19H,7-10H2,1H3","MRVNWGMPLKJFPX-UHFFFAOYSA-N","?","26","mean from 3","b/apparent","?","basic",9.61
"14393","N(CC1(=CC=CC=C1))CCC","CCCNCC1C=CC=CC=1","InChI=1S/C10H15N/c1-2-8-11-9-10-6-4-3-5-7-10/h3-7,11H,2,8-9H2,1H3","OUMBFMLKPJUWDQ-UHFFFAOYSA-N","?","25","potentiometric","b/apparent","?","basic",9.62
"15155","O=C(OCC)C2(=C([O-])C=1(C(=CC=CC=1)N=C2))","CCOC(=O)C1C=NC2=CC=CC=C2C=1O","InChI=1S/C12H11NO3/c1-2-16-12(15)9-7-13-10-6-4-3-5-8(10)11(9)14/h3-7H,2H2,1H3,(H,13,14)","YBEOYBKKSWUSBR-UHFFFAOYSA-N","?","20","mean from 2","a1/apparent","O-H","basic",9.62
"11897","O=C(OCCCN)C(=C)C","CC(=C)C(=O)OCCCN","InChI=1S/C7H13NO2/c1-6(2)7(9)10-5-3-4-8/h1,3-5,8H2,2H3","SNCMCDMEYCLVBO-UHFFFAOYSA-N","?","25","potentiometric","a1/thermodynamic","?","basic",9.62