"Molecule name","OriginalSmiles","Canonical_QSARr","InChI_Code_QSARr","InChI Key_QSARr","Salt_Solvent (Concatenate)","temp","method","type","group","basicOrAcidic","pKa"
"11828","[O-]C1(=[N+](C=CC(=N1)NC)C)","CNC1=CC=[N+](C)C(O)=N1","InChI=1S/C6H9N3O/c1-7-5-3-4-9(2)6(10)8-5/h3-4H,1-2H3,(H,7,8,10)/p+1","VBPAOWSIZPGRAK-UHFFFAOYSA-O","?",,,"a/apparent","?","basic",4.47
"13369","N=1(C=2(C(C(C)=CC=1C)=CC=CC=2C))","CC1C=CC=C2C=1N=C(C)C=C2C","InChI=1S/C12H13N/c1-8-5-4-6-11-9(2)7-10(3)13-12(8)11/h4-7H,1-3H3","UAPYNUQREMCVSV-UHFFFAOYSA-N","?","25","potentiometric","b/apparent","?","basic",4.48
"17055","S(C1(=CC=CC=C1))C(=N)C2(=CC=CC=C2)","N=C(SC1C=CC=CC=1)C1C=CC=CC=1","InChI=1S/C13H11NS/c14-13(11-7-3-1-4-8-11)15-12-9-5-2-6-10-12/h1-10,14H","BNFZQXSCJKZLOD-UHFFFAOYSA-N","?","25",,"b/apparent","?","basic",4.48
"15936","O=C2(C(=CC(=C1(C=CC=CC=C1))C=C2C(C)(C)C)C(C)(C)C)","CC(C)(C)C1=CC(C=C(C1=O)C(C)(C)C)=C1C=CC=CC=C1","InChI=1S/C21H26O/c1-20(2,3)17-13-16(15-11-9-7-8-10-12-15)14-18(19(17)22)21(4,5)6/h7-14H,1-6H3","NABMNMUJOMUCSZ-UHFFFAOYSA-N","?","25","spectrophotometric","a1/apparent","?","basic",4.48
"12725","N2(=C1(NC=CC1=CC=C2))","C1=CC=C2C=CNC2=N1","InChI=1S/C7H6N2/c1-2-6-3-5-9-7(6)8-4-1/h1-5H,(H,8,9)","MVXVYAKCVDQRLW-UHFFFAOYSA-N","?","26","potentiometric","a1/apparent","?","basic",4.48
"16078","O=C1(N(C(=O)C=2(N(CC(=O)[O-])C=NC=2(N1C)))C)","CN1C(=O)C2=C(N=CN2C=C(O)O)N(C)C1=O","InChI=1S/C9H10N4O4/c1-11-7-6(8(16)12(2)9(11)17)13(4-10-7)3-5(14)15/h3-4,14-15H,1-2H3","UJIVZRYUQIFOFN-UHFFFAOYSA-N","?",,"potentiometric","a/apparent","?","basic",4.48
"16316","N2(=C(N=C3(N(C1(=CC=CC=C1))N=CC3(=C2N)))N)","NC1N=C2C(C=NN2C2C=CC=CC=2)=C(N)N=1","InChI=1S/C11H10N6/c12-9-8-6-14-17(7-4-2-1-3-5-7)10(8)16-11(13)15-9/h1-6H,(H4,12,13,15,16)","JUCSNAMHVJOWAV-UHFFFAOYSA-N","?","20","spectrophotometric","a/apparent","?","basic",4.49
"13900","NC1(=C2(C(=CC=C1)CCCC2))","NC1C=CC=C2CCCCC2=1","InChI=1S/C10H13N/c11-10-7-3-5-8-4-1-2-6-9(8)10/h3,5,7H,1-2,4,6,11H2","SODWJACROGQSMM-UHFFFAOYSA-N","?","16","potentiometric","a/apparent","?","basic",4.5
"11139","S(C=2(C=1(C(=NC=CC=1)C=CC=2)))C","CSC1=CC=CC2=NC=CC=C21","InChI=1S/C10H9NS/c1-12-10-6-2-5-9-8(10)4-3-7-11-9/h2-7H,1H3","BDLZEBCBFTUAHD-UHFFFAOYSA-N","?","20","spectrophotometric","a/apparent","NH%+&","basic",4.5
"17188","N=1(C=3(C(C=C2(C=1C=CC=C2))=CC=CC=3C))","CC1C=CC=C2C=C3C=CC=CC3=NC2=1","InChI=1S/C14H11N/c1-10-5-4-7-12-9-11-6-2-3-8-13(11)15-14(10)12/h2-9H,1H3","SKLZCRNUJKGGRW-UHFFFAOYSA-N","?","25","potentiometric","b/apparent","?","basic",4.5
"15006","N=1(C=3(C(C=C2(C=1C=CC(=C2)C))=CC(C)=CC=3))","CC1=CC2=CC3=CC(C)=CC=C3N=C2C=C1","InChI=1S/C15H13N/c1-10-3-5-14-12(7-10)9-13-8-11(2)4-6-15(13)16-14/h3-9H,1-2H3","ITLFEIRERKXAAO-UHFFFAOYSA-N","?","25.5","potentiometric","b/apparent","?","basic",4.5
"17387","N#CCN(C)C","CN(C)CC#N","InChI=1S/C4H8N2/c1-6(2)4-3-5/h4H2,1-2H3","PLXBWEPPAAQASG-UHFFFAOYSA-N","?","25","spectrophotometric","a1/apparent","Me2NH(+)","basic",4.5
"14297","N#CCCNC1(=CC=CC=C1)","N#CCCNC1C=CC=CC=1","InChI=1S/C9H10N2/c10-7-4-8-11-9-5-2-1-3-6-9/h1-3,5-6,11H,4,8H2","FENJKTQEFUPECW-UHFFFAOYSA-N","?","20","potentiometric","a1/apparent","?","basic",4.5
"16833","OC=2(C1(=NC=CC=C1C=CC=2C(C=C)CC(CC(C)(C)C)(C)C))","CC(C)(C)CC(C)(C)CC(C=C)C1C=CC2=CC=CN=C2C=1O","InChI=1S/C21H29NO/c1-7-15(13-21(5,6)14-20(2,3)4)17-11-10-16-9-8-12-22-18(16)19(17)23/h7-12,15,23H,1,13-14H2,2-6H3","VOHHCUUIBNXCNP-UHFFFAOYSA-N","?","25",,"a1/apparent","N-H","basic",4.51
"12011","S1(C(=NC2(=C1C=CC=C2))N)","NC1=NC2C=CC=CC=2S1","InChI=1S/C7H6N2S/c8-7-9-5-3-1-2-4-6(5)10-7/h1-4H,(H2,8,9)","UHGULLIUJBCTEF-UHFFFAOYSA-N","?","20","potentiometric","a/apparent","?","basic",4.51
"13123","O(C1(=C(N)C=CC=C1))C","COC1C=CC=CC=1N","InChI=1S/C7H9NO/c1-9-7-5-3-2-4-6(7)8/h2-5H,8H2,1H3","VMPITZXILSNTON-UHFFFAOYSA-N","?","22","mean from 9","a1/thermodynamic","?","basic",4.51
"16330","N3(=C(N)C2(=C(N(C1(=CC=CC=C1))N=C2)N=C3C))","CC1N=C(N)C2C=NN(C=2N=1)C1C=CC=CC=1","InChI=1S/C12H11N5/c1-8-15-11(13)10-7-14-17(12(10)16-8)9-5-3-2-4-6-9/h2-7H,1H3,(H2,13,15,16)","MIJQMGBQCRWZJQ-UHFFFAOYSA-N","?","20","spectrophotometric","a/apparent","?","basic",4.52
"12504","OC=2(C1(=NC=CC=C1C=CC=2CC=C))","C=CCC1C=CC2=CC=CN=C2C=1O","InChI=1S/C12H11NO/c1-2-4-10-7-6-9-5-3-8-13-11(9)12(10)14/h2-3,5-8,14H,1,4H2","QDPZZFJBSANDES-UHFFFAOYSA-N","?","25",,"a1/apparent","N-H","basic",4.52
"17217","N=1(C=3(C(N=C2(C=1C=CC=C2))=CC=C(C=3)N))","NC1C=C2N=C3C=CC=CC3=NC2=CC=1","InChI=1S/C12H9N3/c13-8-5-6-11-12(7-8)15-10-4-2-1-3-9(10)14-11/h1-7H,13H2","RHQTYDDJBYBCQV-UHFFFAOYSA-N","?","20","mean from 2","a1/apparent","?","basic",4.52
"16227","O=C(OC1(=NC(=NC(=C1C)C)N(C)C))N(C)C","CC1N=C(N=C(OC(=O)N(C)C)C=1C)N(C)C","InChI=1S/C11H18N4O2/c1-7-8(2)12-10(14(3)4)13-9(7)17-11(16)15(5)6/h1-6H3","YFGYUFNIOHWBOB-UHFFFAOYSA-N","?","24","mean from 2","a1/apparent","?","basic",4.53
"15174","O(C2(=CC=C(N=NC1(=CC=NC=C1))C=C2))C","COC1C=CC(=CC=1)N=NC1C=CN=CC=1","InChI=1S/C12H11N3O/c1-16-12-4-2-10(3-5-12)14-15-11-6-8-13-9-7-11/h2-9H,1H3","QAHXMHRIMFMINN-UHFFFAOYSA-N","?","25","spectrophotometric","b1/apparent","N%+&H","basic",4.53
"13983","N2(=C(NC)C1(=C(NN=C1)N=C2))","CNC1=NC=NC2NN=CC1=2","InChI=1S/C6H7N5/c1-7-5-4-2-10-11-6(4)9-3-8-5/h2-3H,1H3,(H2,7,8,9,10,11)","HXXBSUPHBFYSQW-UHFFFAOYSA-N","?","20","spectrophotometric","a1/apparent","?","basic",4.53
"14509","OCCCNC1(=CC=CC=C1)","OCCCNC1C=CC=CC=1","InChI=1S/C9H13NO/c11-8-4-7-10-9-5-2-1-3-6-9/h1-3,5-6,10-11H,4,7-8H2","GZYBSURBYCLNSM-UHFFFAOYSA-N","?","24.9","spectrophotometric","a1/apparent","NH","basic",4.53
"15322","N1(=C(N=CC2(=C1NC=N2))N=CC3(=CC=C(N(C)C)C=C3))","CN(C)C1C=CC(C=NC2=NC3NC=NC=3C=N2)=CC=1","InChI=1S/C14H14N6/c1-20(2)11-5-3-10(4-6-11)7-15-14-16-8-12-13(19-14)18-9-17-12/h3-9H,1-2H3,(H,16,17,18,19)","OKWHDASBCPUBAD-UHFFFAOYSA-N","?, ?","25","spectrophotometric","a2/apparent","OH, NH","basic",4.54
"15186","N24(C1(=C(C=CC=C1)C(C3(=C2C=CC=C3))CC4))","C1CN2C3C=CC=CC=3C1C1C=CC=CC2=1","InChI=1S/C15H13N/c1-3-7-14-12(5-1)11-9-10-16(14)15-8-4-2-6-13(11)15/h1-8,11H,9-10H2","LCUFLMBFUQIMBO-UHFFFAOYSA-N","?","25","mean from 2","a1/thermodynamic","NH(+)","basic",4.54
"13347","ON=CC=1(C=2(C(N=CC=1)=CC=CC=2))","O=NCC1=CC=NC2=CC=CC=C12","InChI=1S/C10H8N2O/c13-12-7-8-5-6-11-10-4-2-1-3-9(8)10/h1-6H,7H2","GIDTWRKUFXMHAH-UHFFFAOYSA-N","?","20","spectrophotometric","a1/apparent","?","basic",4.55
"12468","N(C1(=CC=CC=C1))=CC2(=CC=CC=C2)","C(=NC1C=CC=CC=1)C1C=CC=CC=1","InChI=1S/C13H11N/c1-3-7-12(8-4-1)11-14-13-9-5-2-6-10-13/h1-11H","UVEWQKMPXAHFST-UHFFFAOYSA-N","?","20","spectrophotometric","a1/apparent","N=CH","basic",4.55
"16982","NC2(=CC=C(CC1(=CC=C(N)C=C1))C=C2)","NC1C=CC(CC2C=CC(N)=CC=2)=CC=1","InChI=1S/C13H14N2/c14-12-5-1-10(2-6-12)9-11-3-7-13(15)8-4-11/h1-8H,9,14-15H2","YBRVSVVVWCFQMG-UHFFFAOYSA-N","?, ?","19","mean from 2","a1/apparent","NH2, ?","basic",4.55
"10268","OC1(=C(N)C=CC=C1)","NC1C=CC=CC=1O","InChI=1S/C6H7NO/c7-5-3-1-2-4-6(5)8/h1-4,8H,7H2","CDAWCLOXVUBKRW-UHFFFAOYSA-N","?","23","mean from 7","a1/thermodynamic","N(+)-H","basic",4.55
"12893","N#CCN1(CCCCC1)","N#CCN1CCCCC1","InChI=1S/C7H12N2/c8-4-7-9-5-2-1-3-6-9/h1-3,5-7H2","CLVBVRODHJFTGF-UHFFFAOYSA-N","?","25","potentiometric","a/apparent","?","basic",4.55
"13125","O=CC1(=NC(=CC=C1)C)","CC1=CC=CC(C=O)=N1","InChI=1S/C7H7NO/c1-6-3-2-4-7(5-9)8-6/h2-5H,1H3","AHISYUZBWDSPQL-UHFFFAOYSA-N","?",,"potentiometric","a/apparent","?","basic",4.55
"12438","S1(C(NCC1)C2(=CC=C([N+](=O)[O-])C=C2))","[O-][N+](=O)C1C=CC(=CC=1)C1NCCS1","InChI=1S/C9H10N2O2S/c12-11(13)8-3-1-7(2-4-8)9-10-5-6-14-9/h1-4,9-10H,5-6H2","FMRGPMCASSSEHQ-UHFFFAOYSA-N","?","27","mean from 2","a1/apparent","=NH2(1+)","basic",4.55
"16252","N(C1(=CC=CC=C1))CCCCCCCCCC","CCCCCCCCCCNC1C=CC=CC=1","InChI=1S/C16H27N/c1-2-3-4-5-6-7-8-12-15-17-16-13-10-9-11-14-16/h9-11,13-14,17H,2-8,12,15H2,1H3","VTHOTOFWYDBNID-UHFFFAOYSA-N","?","24.9","spectrophotometric","a1/apparent","?","basic",4.56
"13770","S2(C1(=NC(=NC(=C1N=C2)N)C))","CC1N=C2SC=NC2=C(N)N=1","InChI=1S/C6H6N4S/c1-3-9-5(7)4-6(10-3)11-2-8-4/h2H,1H3,(H2,7,9,10)","LPBAQFKQPJQMEZ-UHFFFAOYSA-N","?",,"potentiometric","a/apparent","?","basic",4.56
"14397","N(C1(=CC=CC=C1))C(C=C)C","CC(C=C)NC1C=CC=CC=1","InChI=1S/C10H13N/c1-3-9(2)11-10-7-5-4-6-8-10/h3-9,11H,1H2,2H3","DYHSFVIHXKGVNV-UHFFFAOYSA-N","?","25","potentiometric","b/apparent","?","basic",4.57
"13371","N(C2(=CC=1(C(=CC=CC=1)C=C2)))(C)C","CN(C)C1=CC2=CC=CC=C2C=C1","InChI=1S/C12H13N/c1-13(2)12-8-7-10-5-3-4-6-11(10)9-12/h3-9H,1-2H3","IKZPRXHVTFNIEK-UHFFFAOYSA-N","?","25","spectrophotometric","thermodynamic","?","basic",4.57
"16016","N=1(C=3(C(C2(=CC=CC=C2(C=1)))=CC=CC=3))","C1=NC2=CC=CC=C2C2=CC=CC=C21","InChI=1S/C13H9N/c1-2-6-11-10(5-1)9-14-13-8-4-3-7-12(11)13/h1-9H","RDOWQLZANAYVLL-UHFFFAOYSA-N","?","20","mean from 2","a/apparent","NH+","basic",4.58
"11734","OB(O)C1(=C(N)C=CC=C1)","NC1C=CC=CC=1B(O)O","InChI=1S/C6H8BNO2/c8-6-4-2-1-3-5(6)7(9)10/h1-4,9-10H,8H2","DIRRKLFMHQUJCM-UHFFFAOYSA-N","?","25","potentiometric","apparent","NH3+","basic",4.58
"11829","[O-]C1(=[NH+]C=CC(=N1)NCC)","CCNC1C=CN=C(O)N=1","InChI=1S/C6H9N3O/c1-2-7-5-3-4-8-6(10)9-5/h3-4H,2H2,1H3,(H2,7,8,9,10)","TVICROIWXBFQEL-UHFFFAOYSA-N","?","20","potentiometric","a/apparent","?","basic",4.58
"15734","N(C2(=CC=C(C=CC1(=C(C=CC=C1)C))C=C2))(C)C","CC1C=CC=CC=1C=CC1C=CC(=CC=1)N(C)C","InChI=1S/C17H19N/c1-14-6-4-5-7-16(14)11-8-15-9-12-17(13-10-15)18(2)3/h4-13H,1-3H3","UFLSFHMZKBRTEE-UHFFFAOYSA-N","?","20","spectrophotometric","a/apparent","?","basic",4.59
"12066","N2(=C(N)C1(=C(NN=C1)N=C2))","NC1=NC=NC2NN=CC=21","InChI=1S/C5H5N5/c6-4-3-1-9-10-5(3)8-2-7-4/h1-2H,(H3,6,7,8,9,10)","LHCPRYRLDOSKHK-UHFFFAOYSA-N","?","20","spectrophotometric","a1/apparent","?","basic",4.59
"13013","N(C1(=C(C=CC=C1)C))C","CC1C=CC=CC=1NC","InChI=1S/C8H11N/c1-7-5-3-4-6-8(7)9-2/h3-6,9H,1-2H3","GUAWMXYQZKVRCW-UHFFFAOYSA-N","?","25","potentiometric","a/apparent","?","basic",4.59
"10792","O(C1(=CC=C(N(CO)C)C=C1))C","COC1C=CC(=CC=1)N(C)CO","InChI=1S/C9H13NO2/c1-10(7-11)8-3-5-9(12-2)6-4-8/h3-6,11H,7H2,1-2H3","UEZZAXBOCZHGNI-UHFFFAOYSA-N","?","25","spectrophotometric","a1/thermodynamic","?","basic",4.59
"14929","O=C(OCC[N+](C)(C)C)C=CC=1(N=CNC=1)","C[N+](C)(C)CCOC(=O)/C=C/C1=CNC=N1","InChI=1S/C11H17N3O2/c1-14(2,3)6-7-16-11(15)5-4-10-8-12-9-13-10/h4-5,8-9H,6-7H2,1-3H3/p+1","XDPGNNXEHPAHCJ-UHFFFAOYSA-O","?","20","potentiometric","a/apparent","?","basic",4.6
"13674","O(CCCCNC1(=CC=CC=C1))C","COCCCCNC1C=CC=CC=1","InChI=1S/C11H17NO/c1-13-10-6-5-9-12-11-7-3-2-4-8-11/h2-4,7-8,12H,5-6,9-10H2,1H3","DADBWRSJFCLOGL-UHFFFAOYSA-N","?","24.9","spectrophotometric","a1/apparent","NH","basic",4.6
"13677","O(CCNC1(=CC=C(C)C=C1))CC","CC1C=CC(=CC=1)NCCOCC","InChI=1S/C11H17NO/c1-3-13-9-8-12-11-6-4-10(2)5-7-11/h4-7,12H,3,8-9H2,1-2H3","ODZIZPZRSGOGOG-UHFFFAOYSA-N","?","24.9","spectrophotometric","a1/apparent","NH","basic",4.6
"15767","N2(=C(NCC(CCCC)CC)C1(=C(NN=C1)N=C2))","CCC(CNC1=NC=NC2NN=CC=21)CCCC","InChI=1S/C13H21N5/c1-3-5-6-10(4-2)7-14-12-11-8-17-18-13(11)16-9-15-12/h8-10H,3-7H2,1-2H3,(H2,14,15,16,17,18)","NRNRKJUINOARAS-UHFFFAOYSA-N","?","20","spectrophotometric","a/apparent","?","basic",4.6
"15243","S1(C(C(C(=O)[O-])N3(C1C(NC(=O)CC2(=CC=C(N)C=C2))C3=O))(C)C)","CC1(C)SC2C(=NC(O)=CC3C=CC(N)=CC=3)C(O)N2C1=C(O)O","InChI=1S/C16H19N3O4S/c1-16(2)12(15(22)23)19-13(21)11(14(19)24-16)18-10(20)7-8-3-5-9(17)6-4-8/h3-7,13-14,20-23H,17H2,1-2H3","GVRPRTGOGBPAGT-UHFFFAOYSA-N","?",,,"a2/apparent","?","basic",4.6
"17845","NC1(=CC=CC=C1)","NC1C=CC=CC=1","InChI=1S/C6H7N/c7-6-4-2-1-3-5-6/h1-5H,7H2","PAYRUJLWNCNPSJ-UHFFFAOYSA-N","?","23","mean from 28","b1/apparent","NH%+&","basic",4.6
"11236","N2(=C(NCC)C1(=C(NN=C1)N=C2))","CCNC1=NC=NC2NN=CC1=2","InChI=1S/C7H9N5/c1-2-8-6-5-3-11-12-7(5)10-4-9-6/h3-4H,2H2,1H3,(H2,8,9,10,11,12)","SBDWBYNASHULMY-UHFFFAOYSA-N","?","20","spectrophotometric","a1/apparent","?","basic",4.6
"11757","ON(CC1(=CC=CC=C1))C","CN(O)CC1C=CC=CC=1","InChI=1S/C8H11NO/c1-9(10)7-8-5-3-2-4-6-8/h2-6,10H,7H2,1H3","NCLWMRHNDKORFM-UHFFFAOYSA-N","?","30",,"a1/apparent","?","basic",4.6
"14025","N=1(C=2(C(C=NC=1)=CC=C(C=2)N))","NC1C=C2N=CN=CC2=CC=1","InChI=1S/C8H7N3/c9-7-2-1-6-4-10-5-11-8(6)3-7/h1-5H,9H2","JBFKTGKPNDZSPY-UHFFFAOYSA-N","?","20","potentiometric","a/apparent","?","basic",4.6
"13980","N2(=C(N)C1(=C(NN=C1C)N=C2))","CC1=NNC2N=CN=C(N)C=21","InChI=1S/C6H7N5/c1-3-4-5(7)8-2-9-6(4)11-10-3/h2H,1H3,(H3,7,8,9,10,11)","VQXHGXDVBHJJJU-UHFFFAOYSA-N","?","20","spectrophotometric","a1/apparent","?","basic",4.61
"11255","O=C1(N=C(N(C)C2(=C1NC=N2))N)","CN1C(N)=NC(=O)C2NC=NC1=2","InChI=1S/C6H7N5O/c1-11-4-3(8-2-9-4)5(12)10-6(11)7/h2H,1H3,(H,8,9)(H2,7,10,12)","XHBSBNYEHDQRCP-UHFFFAOYSA-N","?","22","spectrophotometric","a1/apparent","?","basic",4.61
"17121","N2(=C(NCCC(C)C)C1(=C(NN=C1)N=C2))","CC(C)CCNC1=NC=NC2NN=CC=21","InChI=1S/C10H15N5/c1-7(2)3-4-11-9-8-5-14-15-10(8)13-6-12-9/h5-7H,3-4H2,1-2H3,(H2,11,12,13,14,15)","DDGRELYEXVSKCZ-UHFFFAOYSA-N","?","20","spectrophotometric","a/apparent","?","basic",4.62
"16914","O=C([O-])C3(OC(OC=2(C1(=NC=CC=C1C=CC=2)))C(O)C(C3O)O)","OC(O)=C1OC(OC2=CC=CC3=CC=CN=C32)C(O)C(O)C1O","InChI=1S/C15H15NO7/c17-10-11(18)13(14(20)21)23-15(12(10)19)22-8-5-1-3-7-4-2-6-16-9(7)8/h1-6,10-12,15,17-21H","PNJFEGIXFKRPIW-UHFFFAOYSA-N","?","22","mean from 2","a2/apparent","?","basic",4.62
"14353","O=C(N(C1(=CC=NC=C1))C)C","CN(C(=C)O)C1C=CN=CC=1","InChI=1S/C8H10N2O/c1-7(11)10(2)8-3-5-9-6-4-8/h3-6,11H,1H2,2H3","ASVLJVUDVXJBEC-UHFFFAOYSA-N","?",,"potentiometric","a/apparent","?","basic",4.62
"13439","N2(=C(NC(C)C)C1(=C(NN=C1)N=C2))","CC(C)NC1=NC=NC2NN=CC=21","InChI=1S/C8H11N5/c1-5(2)12-7-6-3-11-13-8(6)10-4-9-7/h3-5H,1-2H3,(H2,9,10,11,12,13)","VKYPWJLCQAENHE-UHFFFAOYSA-N","?","20","spectrophotometric","a1/apparent","?","basic",4.62
"14747","O(N)C","CON","InChI=1S/CH5NO/c1-3-2/h2H2,1H3","GMPKIPWJBDOURN-UHFFFAOYSA-N","?","25","mean from 4","a/thermodynamic","?","basic",4.62
"17198","OC3(=C1(C(C=2(C=CC(=CC=2(C1))N))=CC=C3))","NC1=CC2CC3=C(O)C=CC=C3C=2C=C1","InChI=1S/C13H11NO/c14-9-4-5-10-8(6-9)7-12-11(10)2-1-3-13(12)15/h1-6,15H,7,14H2","ITWCBIMUIBQLCW-UHFFFAOYSA-N","?","25","spectrophotometric","a1/apparent","NH2","basic",4.63
"16749","O(C3(=C(C1(=NC=2(N=CC=CC=2(N1))))C=CC(=C3)OC))C","COC1C=C(C=CC=1C1NC2C=CC=NC=2N=1)OC","InChI=1S/C14H13N3O2/c1-18-9-5-6-10(12(8-9)19-2)13-16-11-4-3-7-15-14(11)17-13/h3-8H,1-2H3,(H,15,16,17)","XQRDAEMFUZSXOO-UHFFFAOYSA-N","?","25","mean from 2","a1/apparent","?","basic",4.63
"10286","O=CC1(=CC=NC=C1)","O=CC1C=CN=CC=1","InChI=1S/C6H5NO/c8-5-6-1-3-7-4-2-6/h1-5H","BGUWFUQJCDRPTL-UHFFFAOYSA-N","?","20","mean from 3","a1/apparent","prot.","basic",4.63
"11112","ClC2(=CC=1(N=C(CO)NC=1C=C2))","OCC1NC2C=CC(Cl)=CC=2N=1","InChI=1S/C8H7ClN2O/c9-5-1-2-6-7(3-5)11-8(4-12)10-6/h1-3,12H,4H2,(H,10,11)","NIWRFQPRPJVQLO-UHFFFAOYSA-N","?","30","potentiometric","a2/apparent","=N-H(+)","basic",4.63
"12437","S1(C(NCC1)C2(=CC([N+](=O)[O-])=CC=C2))","[O-][N+](=O)C1C=C(C=CC=1)C1NCCS1","InChI=1S/C9H10N2O2S/c12-11(13)8-3-1-2-7(6-8)9-10-4-5-14-9/h1-3,6,9-10H,4-5H2","NIWRAQIFCGUNIT-UHFFFAOYSA-N","?","27","potentiometric","a1/apparent","N-H","basic",4.63
"15674","S=C(N=NC1(=CC=CC=C1))NNC2(=CC=CC=C2)","S=C(NNC1C=CC=CC=1)N=NC1C=CC=CC=1","InChI=1S/C13H12N4S/c18-13(16-14-11-7-3-1-4-8-11)17-15-12-9-5-2-6-10-12/h1-10,14H,(H,16,18)","UOFGSWVZMUXXIY-UHFFFAOYSA-N","?","25","mean from 2",,"?","basic",4.64
"15583","N=3(C=2(C1(=C(C=CC=C1C=CC=2)N(C=3)CC[NH+](C)C)))","CN(C)CCN1C=NC2=CC=CC3C=CC=C1C=32","InChI=1S/C15H17N3/c1-17(2)9-10-18-11-16-13-7-3-5-12-6-4-8-14(18)15(12)13/h3-8,11H,9-10H2,1-2H3","LZMXFFMCRQHXJI-UHFFFAOYSA-N","?","25","spectrophotometric","a1/apparent","?","basic",4.64
"10231","FC1(=CC=C(N)C=C1)","NC1=CC=C(F)C=C1","InChI=1S/C6H6FN/c7-5-1-3-6(8)4-2-5/h1-4H,8H2","KRZCOLNOCZKSDF-UHFFFAOYSA-N","?","25","potentiometric","b/thermodynamic","?","basic",4.64
"13968","O1(C(=NC=2(C=CC=CC=2(C1)))C)","CC1=NC2C=CC=CC=2CO1","InChI=1S/C9H9NO/c1-7-10-9-5-3-2-4-8(9)6-11-7/h2-5H,6H2,1H3","BFQJUSXZOJUPLO-UHFFFAOYSA-N","?","25.05","kinetics","a1/apparent","NH%+&","basic",4.64
"15306","O3(C(N2(C1(=C(C=C(C)C(=C1)C)N=C2)))C(O)C(O)C(C3)O)","CC1=CC2=C(C=C1C)N=CN2C1OCC(O)C(O)C1O","InChI=1S/C14H18N2O4/c1-7-3-9-10(4-8(7)2)16(6-15-9)14-13(19)12(18)11(17)5-20-14/h3-4,6,11-14,17-19H,5H2,1-2H3","SOHRDGIOWKKMRT-UHFFFAOYSA-N","?, ?","25","potentiometric","a/apparent","?, ?","basic",4.640000000000001
"16336","O1(C(=CC=C1)CNC2(=NC(=NC3(=C2C=NN3))C))","CC1N=C(NCC2=CC=CO2)C2C=NNC=2N=1","InChI=1S/C11H11N5O/c1-7-14-10(9-6-13-16-11(9)15-7)12-5-8-3-2-4-17-8/h2-4,6H,5H2,1H3,(H2,12,13,14,15,16)","JFTBZRLPFLOMHC-UHFFFAOYSA-N","?","20","spectrophotometric","a/apparent","?","basic",4.65
"15455","P(=O)(CCCCCC)(CCCCCC)CCCCCC","CCCCCCP(=O)(CCCCCC)CCCCCC","InChI=1S/C18H39OP/c1-4-7-10-13-16-20(19,17-14-11-8-5-2)18-15-12-9-6-3/h4-18H2,1-3H3","PPDZLUVUQQGIOJ-UHFFFAOYSA-N","?","25","conductometric","a2/apparent","?","basic",4.65
"16877","P(=O)(CCCCCCC)(CCCCCCC)CCCCCCC","CCCCCCCP(=O)(CCCCCCC)CCCCCCC","InChI=1S/C21H45OP/c1-4-7-10-13-16-19-23(22,20-17-14-11-8-5-2)21-18-15-12-9-6-3/h4-21H2,1-3H3","KNFWHHCXXKWASF-UHFFFAOYSA-N","?","25","conductometric","a2/apparent","?","basic",4.65
"13600","OCNC1(=NC(=NC(=N1)N)NCO)","NC1N=C(NCO)N=C(NCO)N=1","InChI=1S/C5H10N6O2/c6-3-9-4(7-1-12)11-5(10-3)8-2-13/h12-13H,1-2H2,(H4,6,7,8,9,10,11)","SUPOBRXPULIDDX-UHFFFAOYSA-N","?","25","mean from 2","b/apparent","?","basic",4.65
"13956","O2(C=C(C1(=NC=CC=C1))C=C2)","C1OC=CC=1C1C=CC=CN=1","InChI=1S/C9H7NO/c1-2-5-10-9(3-1)8-4-6-11-7-8/h1-7H","OABGTYQUPIQPBQ-UHFFFAOYSA-N","?","25","spectrophotometric","a1/apparent","?","basic",4.65
"12502","OC=2(C1(=NC=CC=C1C=CC=2C=CC))","CC=CC1C=CC2=CC=CN=C2C=1O","InChI=1S/C12H11NO/c1-2-4-10-7-6-9-5-3-8-13-11(9)12(10)14/h2-8,14H,1H3","MWNGBZCMWYKIDR-UHFFFAOYSA-N","?","25",,"a1/apparent","N-H","basic",4.66
"10284","OCC1(=NC=CC=C1)","OCC1C=CC=CN=1","InChI=1S/C6H7NO/c8-5-6-3-1-2-4-7-6/h1-4,8H,5H2","SHNUBALDGXWUJI-UHFFFAOYSA-N","?","25","mean from 2","a1/apparent","?","basic",4.66
"15529","S3(C2(=NC(C1(=C(OC)C=C(OC)C=C1))=CN2C=C3))","COC1C=C(C=CC=1C1=CN2C=CSC2=N1)OC","InChI=1S/C13H12N2O2S/c1-16-9-3-4-10(12(7-9)17-2)11-8-15-5-6-18-13(15)14-11/h3-8H,1-2H3","SLEVZXZUNNMWOM-UHFFFAOYSA-N","?","25","spectrophotometric","a1/apparent","?","basic",4.67
"15649","NC3(=CC=2(C=1(C=4(C(C=CC=1CC=2C=C3)=CC=CC=4))))","NC1=CC2=C(CC3C=CC4=CC=CC=C4C2=3)C=C1","InChI=1S/C17H13N/c18-14-8-7-12-9-13-6-5-11-3-1-2-4-15(11)17(13)16(12)10-14/h1-8,10H,9,18H2","OKPRCJFFJKZUHI-UHFFFAOYSA-N","?","25","spectrophotometric","a1/apparent","ArNH2","basic",4.67
"12537","N2(=C(NCCCC)C1(=C(NN=C1)N=C2))","CCCCNC1=NC=NC2NN=CC1=2","InChI=1S/C9H13N5/c1-2-3-4-10-8-7-5-13-14-9(7)12-6-11-8/h5-6H,2-4H2,1H3,(H2,10,11,12,13,14)","JWEGHNQHVNZGHA-UHFFFAOYSA-N","?","20","spectrophotometric","a1/apparent","?","basic",4.67
"13394","O=C([O-])C=1(C=NC2(=CC=CC=C2(C=1)))","OC(=O)C1=CC2C=CC=CC=2N=C1","InChI=1S/C10H7NO2/c12-10(13)8-5-7-3-1-2-4-9(7)11-6-8/h1-6H,(H,12,13)","DJXNJVFEFSWHLY-UHFFFAOYSA-N","?","20","potentiometric","a1/apparent","?","basic",4.68
"15534","S(C1(=NC2(=CC3(=CC=CC=C3(C=C2(N1))))))CC(=O)[O-]","OC(O)=CSC1NC2=CC3C=CC=CC=3C=C2N=1","InChI=1S/C13H10N2O2S/c16-12(17)7-18-13-14-10-5-8-3-1-2-4-9(8)6-11(10)15-13/h1-7,16-17H,(H,14,15)","ADBFAKCZFCDXRM-UHFFFAOYSA-N","?","20","spectrophotometric","a2/apparent","?","basic",4.68
"16015","NC3(=CC=2(C1(=C(C=CC=C1)CC=2C=C3)))","NC1=CC2=C(CC3C=CC=CC2=3)C=C1","InChI=1S/C13H11N/c14-11-6-5-10-7-9-3-1-2-4-12(9)13(10)8-11/h1-6,8H,7,14H2","FNGCZPANGGUOPU-UHFFFAOYSA-N","?","25","spectrophotometric","a1/apparent","ArNH2","basic",4.68
"12074","N2(=C1(N=C(N)NC1=CN=C2))","NC1NC2=CN=CN=C2N=1","InChI=1S/C5H5N5/c6-5-9-3-1-7-2-8-4(3)10-5/h1-2H,(H3,6,7,8,9,10)","IKZRFGGARFKJOA-UHFFFAOYSA-N","?","20","potentiometric","a1/apparent","?","basic",4.68
"14419","SCCNC1(=CC(=CC=C1)C)","CC1C=C(C=CC=1)NCCS","InChI=1S/C9H13NS/c1-8-3-2-4-9(7-8)10-5-6-11/h2-4,7,10-11H,5-6H2,1H3","AQDSECZRHPAJEM-UHFFFAOYSA-N","?","17","potentiometric","b/apparent","?","basic",4.68
"11133","N2(C1(=CC=C(C)C=C1))(CCCC2)","CC1=CC=C(C=C1)N1CCCC1","InChI=1S/C11H15N/c1-10-4-6-11(7-5-10)12-8-2-3-9-12/h4-7H,2-3,8-9H2,1H3","STRWKFUEXQHMFW-UHFFFAOYSA-N","?",,"potentiometric","b/apparent","?","basic",4.69