"Molecule name","OriginalSmiles","Canonical_QSARr","InChI_Code_QSARr","InChI Key_QSARr","Salt_Solvent (Concatenate)","temp","method","type","group","basicOrAcidic","pKa"
"15825","N=5(C3(=C1(N=CC=CC1=C(C2(=CC=CC=C2))C=C3C(C4(=CC=CC=C4))=CC=5)))","C1=C2C(N=CC=C2C2C=CC=CC=2)=C2N=CC=CC2=C1C1C=CC=CC=1","InChI=1S/C24H16N2/c1-3-8-17(9-4-1)19-13-15-26-24-22(19)16-21(18-10-5-2-6-11-18)20-12-7-14-25-23(20)24/h1-16H","NDOAZIFVIDWKFV-UHFFFAOYSA-N","?","25","potentiometric","a/apparent","?","basic",4.69
"10931","[O-]C1(=[NH+]C=CC(=N1)NCCCC)","CCCCNC1C=CN=C(O)N=1","InChI=1S/C8H13N3O/c1-2-3-5-9-7-4-6-10-8(12)11-7/h4,6H,2-3,5H2,1H3,(H2,9,10,11,12)","KUPBRPHILHFHNK-UHFFFAOYSA-N","?","20","potentiometric","a/apparent","?","basic",4.69
"15541","O=C(NC3(=CC=1(C(=NC2(=CC=CC=C2(C=1)))C=C3)))C","C/C(/O)=N\C1=CC2=CC3C=CC=CC=3N=C2C=C1","InChI=1S/C15H12N2O/c1-10(18)16-13-6-7-15-12(9-13)8-11-4-2-3-5-14(11)17-15/h2-9H,1H3,(H,16,18)","QMRJLXOCWJOZLU-UHFFFAOYSA-N","?","20","potentiometric","a/apparent","?","basic",4.7
"10185","NC1(=CC(=CC=C1)C)","CC1C=C(N)C=CC=1","InChI=1S/C7H9N/c1-6-3-2-4-7(8)5-6/h2-5H,8H2,1H3","JJYPMNFTHPTTDI-UHFFFAOYSA-N","?","24","mean from 10","a1/apparent","NH3(+)","basic",4.7
"10990","N1(=C(N)C(=NC=2(C1=CC=CC=2))N)","NC1=NC2=CC=CC=C2N=C1N","InChI=1S/C8H8N4/c9-7-8(10)12-6-4-2-1-3-5(6)11-7/h1-4H,(H2,9,11)(H2,10,12)","LUDZVVVPVCUUBP-UHFFFAOYSA-N","?","20","potentiometric","a/apparent","?","basic",4.7
"17210","N=2(N1(C(=NC=C1)C=CC=2C3(=CC=CC=C3)))","C1=CC=CC=C1C1C=CC2=NC=CN2N=1","InChI=1S/C12H9N3/c1-2-4-10(5-3-1)11-6-7-12-13-8-9-15(12)14-11/h1-9H","LFZAWJFETHHFOI-UHFFFAOYSA-N","?","25","potentiometric","a1/apparent","?","basic",4.71
"15461","N=3(C2(=C1(N=CC=CC1=CC(=C2C=CC=3)C4(=CC=CC=C4))))","C1C(=C2C=CC=NC2=C2N=CC=CC2=1)C1C=CC=CC=1","InChI=1S/C18H12N2/c1-2-6-13(7-3-1)16-12-14-8-4-10-19-17(14)18-15(16)9-5-11-20-18/h1-12H","QQEQHUHZBMUJET-UHFFFAOYSA-N","?","25","potentiometric","a/apparent","?","basic",4.72
"11585","O=C(N)CC1(=CN=CC=C1)","N=C(O)CC1C=NC=CC=1","InChI=1S/C7H8N2O/c8-7(10)4-6-2-1-3-9-5-6/h1-3,5H,4H2,(H2,8,10)","YDHIMEXEGOCNHU-UHFFFAOYSA-N","?","25","potentiometric","a1/apparent","?","basic",4.72
"11050","N2(=CC(C=1(N(C=CC=1)C))=CC=C2)","CN1C=CC=C1C1C=NC=CC=1","InChI=1S/C10H10N2/c1-12-7-3-5-10(12)9-4-2-6-11-8-9/h2-8H,1H3","RYFOJXFXERAMLS-UHFFFAOYSA-N","?","24",,"b/apparent","?","basic",4.73
"11502","N1(=NC(=CC(=C1C)CC)C)","CCC1C=C(C)N=NC=1C","InChI=1S/C8H12N2/c1-4-8-5-6(2)9-10-7(8)3/h5H,4H2,1-3H3","CHWRGSJVXYJCLH-UHFFFAOYSA-N","?","17.5","potentiometric","a/apparent","?","basic",4.73
"11145","S(C2(=CC=1(C(=NC=CC=1)C=C2)))C","CSC1=CC2=CC=CN=C2C=C1","InChI=1S/C10H9NS/c1-12-9-4-5-10-8(7-9)3-2-6-11-10/h2-7H,1H3","RAPMRHUHGAGZEN-UHFFFAOYSA-N","?","20","spectrophotometric","a/apparent","NH%+&","basic",4.75
"17269","O(NC)C","CNOC","InChI=1S/C2H7NO/c1-3-4-2/h3H,1-2H3","KRKPYFLIYNGWTE-UHFFFAOYSA-N","?","25","mean from 2","a1/apparent","?","basic",4.75
"13707","O=CC1(=C(OC)C(=NC=C1CO)C)","CC1=NC=C(CO)C(C=O)=C1OC","InChI=1S/C9H11NO3/c1-6-9(13-2)8(5-12)7(4-11)3-10-6/h3,5,11H,4H2,1-2H3","AKUWBZIZYAAPNO-UHFFFAOYSA-N","?",,"spectrophotometric","a/apparent","prot.","basic",4.75
"13397","O=C([O-])C=1(C=2(C(N=CC=1)=CC=CC=2))","OC(=O)C1=CC=NC2=CC=CC=C12","InChI=1S/C10H7NO2/c12-10(13)8-5-6-11-9-4-2-1-3-7(8)9/h1-6H,(H,12,13)","VQMSRUREDGBWKT-UHFFFAOYSA-N","?","20","mean from 2","a1/apparent","?","basic",4.76
"15315","S(=O)(C3(=CC(OC)=C(C1(=NC=2(C=CC=CC=2(N1))))C=C3))C","CS(=O)C1=CC(OC)=C(C=C1)C1NC2C=CC=CC=2N=1","InChI=1S/C15H14N2O2S/c1-19-14-9-10(20(2)18)7-8-11(14)15-16-12-5-3-4-6-13(12)17-15/h3-9H,1-2H3,(H,16,17)","DINOOLPQMWMGIN-UHFFFAOYSA-N","?","25","mean from 2","a1/apparent","?","basic",4.76
"12599","ON=C(N)CC(=NO)N","NC(CC(N)N=O)N=O","InChI=1S/C3H8N4O2/c4-2(6-8)1-3(5)7-9/h2-3H,1,4-5H2","UABDYKSTRDJVFZ-UHFFFAOYSA-N","?","25","potentiometric","a/apparent","?","basic",4.77
"10135","FC1(=C(N)C=CN=C1)","NC1C=CN=CC=1F","InChI=1S/C5H5FN2/c6-4-3-8-2-1-5(4)7/h1-3H,(H2,7,8)","UFIKBUVVVGSMGW-UHFFFAOYSA-N","?","20","potentiometric","a1/apparent","?","basic",4.77
"17156","N=1(C=2(C(C=C(C=1)N)=CC3(=CC=CC=C3(C=2))))","NC1C=NC2=CC3=CC=CC=C3C=C2C=1","InChI=1S/C13H10N2/c14-12-6-11-5-9-3-1-2-4-10(9)7-13(11)15-8-12/h1-8H,14H2","GMIFQTVYDNZJLL-UHFFFAOYSA-N","?","20","spectrophotometric","a/apparent","?","basic",4.78
"15664","O(CCOCCC1(=NN=NN1))CCC2(=NN=NN2)","C(COCCOCCC1NN=NN=1)C1NN=NN=1","InChI=1S/C8H14N8O2/c1(7-9-13-14-10-7)3-17-5-6-18-4-2-8-11-15-16-12-8/h1-6H2,(H,9,10,13,14)(H,11,12,15,16)","LQPDHTNPUNDHLV-UHFFFAOYSA-N","?","20","potentiometric","a1/apparent","N-H","basic",4.79
"11202","O=C1(C(C#N)C=2(C=CC=CC=2(C1)))","N#CC1C(O)=CC2=CC=CC=C21","InChI=1S/C10H7NO/c11-6-9-8-4-2-1-3-7(8)5-10(9)12/h1-5,9,12H","HBDTULQITUSOQD-UHFFFAOYSA-N","?",,"potentiometric","a/apparent","?","basic",4.8
"13678","O(CCN(C1(=CC=CC=C1))C)CC","CCOCCN(C)C1C=CC=CC=1","InChI=1S/C11H17NO/c1-3-13-10-9-12(2)11-7-5-4-6-8-11/h4-8H,3,9-10H2,1-2H3","MKEXQAIUIWQDQV-UHFFFAOYSA-N","?","24.9","spectrophotometric","a1/apparent","NH","basic",4.8
"10204","N(C1(=CC=CC=C1))C","CNC1C=CC=CC=1","InChI=1S/C7H9N/c1-8-7-5-3-2-4-6-7/h2-6,8H,1H3","AFBPFSWMIHJQDM-UHFFFAOYSA-N","?","23","mean from 13","a1/apparent","?","basic",4.8
"11244","N2(=C1(N=C(N(C)C)NC1=CN=C2))","CN(C)C1NC2=CN=CN=C2N=1","InChI=1S/C7H9N5/c1-12(2)7-10-5-3-8-4-9-6(5)11-7/h3-4H,1-2H3,(H,8,9,10,11)","WNLBOWJFJNZYPN-UHFFFAOYSA-N","?","20","potentiometric","a1/apparent","?","basic",4.8
"14035","N1(=C(N=CC=2(C1=CC=CC=2))N)","NC1=NC2=CC=CC=C2C=N1","InChI=1S/C8H7N3/c9-8-10-5-6-3-1-2-4-7(6)11-8/h1-5H,(H2,9,10,11)","CZAAKPFIWJXPQT-UHFFFAOYSA-N","?","20","mean from 2","a/apparent","?","basic",4.8
"13958","OC=1(C=2(C(C=NC=1)=CC=CC=2))","OC1=CN=CC2=CC=CC=C21","InChI=1S/C9H7NO/c11-9-6-10-5-7-3-1-2-4-8(7)9/h1-6,11H","DXTUTXYCHFWRQC-UHFFFAOYSA-N","?","20","potentiometric","a1/apparent","?","basic",4.8
"10835","O(CCN(C1(=CC=CC=C1))C)C","COCCN(C)C1C=CC=CC=1","InChI=1S/C10H15NO/c1-11(8-9-12-2)10-6-4-3-5-7-10/h3-7H,8-9H2,1-2H3","IBRLRCIVUSLMRB-UHFFFAOYSA-N","?","24.9","spectrophotometric","a1/apparent","NH","basic",4.81
"12882","N1(=NC(=CC(=C1C)C)C)","CC1=CC(C)=C(C)N=N1","InChI=1S/C7H10N2/c1-5-4-6(2)8-9-7(5)3/h4H,1-3H3","YWJKHFLZFCIARZ-UHFFFAOYSA-N","?","16","potentiometric","a/apparent","?","basic",4.81
"13393","O=C([O-])C2(=CC=1(C(=NC=CC=1)C=C2))","OC(=O)C1C=C2C=CC=NC2=CC=1","InChI=1S/C10H7NO2/c12-10(13)8-3-4-9-7(6-8)2-1-5-11-9/h1-6H,(H,12,13)","VXGYRCVTBHVXMZ-UHFFFAOYSA-N","?","25","spectrophotometric","a/thermodynamic","?","basic",4.82
"17194","OC1(=C(N)C=CC2(=C1CC=3(C=CC=CC2=3)))","NC1C=CC2=C(CC3C=CC=CC2=3)C=1O","InChI=1S/C13H11NO/c14-12-6-5-10-9-4-2-1-3-8(9)7-11(10)13(12)15/h1-6,15H,7,14H2","UTYJWCLETJNCCW-UHFFFAOYSA-N","?","25","spectrophotometric","a1/apparent","NH2","basic",4.82
"17196","OC2(=CC1(=NC=C3(C=CC=CC3(=C1C=C2))))","OC1=CC2=NC=C3C=CC=CC3=C2C=C1","InChI=1S/C13H9NO/c15-10-5-6-12-11-4-2-1-3-9(11)8-14-13(12)7-10/h1-8,15H","PVRBBNVBVWFJSC-UHFFFAOYSA-N","?","20","spectrophotometric","a1/apparent","?","basic",4.82
"10079","N=1(NC(C)=C(C=1C)C)","CC1=C(C)NN=C1C","InChI=1S/C6H10N2/c1-4-5(2)7-8-6(4)3/h1-3H3,(H,7,8)","HUVAAOZUPLEYBH-UHFFFAOYSA-N","?","25","potentiometric","a1/apparent","?","basic",4.82
"13866","OCC1(=NC=2(C=CC=CC=2(N1)))","OCC1NC2C=CC=CC=2N=1","InChI=1S/C8H8N2O/c11-5-8-9-6-3-1-2-4-7(6)10-8/h1-4,11H,5H2,(H,9,10)","IAJLTMBBAVVMQO-UHFFFAOYSA-N","?","164","mean from 2","a2/apparent","=N-H(+)","basic",4.82
"13372","N(C=1(C=2(C(C=CC=1)=CC=CC=2)))(C)C","CN(C)C1=CC=CC2=CC=CC=C21","InChI=1S/C12H13N/c1-13(2)12-9-5-7-10-6-3-4-8-11(10)12/h3-9H,1-2H3","AJUXDFHPVZQOGF-UHFFFAOYSA-N","?","28",,"a/thermodynamic","H%+&","basic",4.83
"10137","ClC1(=CN=C(N)C=C1)","NC1C=CC(Cl)=CN=1","InChI=1S/C5H5ClN2/c6-4-1-2-5(7)8-3-4/h1-3H,(H2,7,8)","MAXBVGJEFDMHNV-UHFFFAOYSA-N","?",,"potentiometric","a/apparent","?","basic",4.83
"14396","N(C1(=CC=CC=C1))CC(C)C","CC(C)CNC1C=CC=CC=1","InChI=1S/C10H15N/c1-9(2)8-11-10-6-4-3-5-7-10/h3-7,9,11H,8H2,1-2H3","GGARKJIWYNVMBF-UHFFFAOYSA-N","?","22","mean from 5","a/apparent","?","basic",4.84
"16337","O1(C(=CC=C1)CNC2(=NC=NC3(=C2NN=C3C)))","CC1=NNC2C(NCC3=CC=CO3)=NC=NC=21","InChI=1S/C11H11N5O/c1-7-9-10(16-15-7)11(14-6-13-9)12-5-8-3-2-4-17-8/h2-4,6H,5H2,1H3,(H,15,16)(H,12,13,14)","PYJQXOQHHSHIDJ-UHFFFAOYSA-N","?","20","spectrophotometric","a/apparent","?","basic",4.84
"15864","O3(CCN(CC[N+]2(=NC(C1(=CC=CC=C1))=CC(=C2N)C))CC3)","CC1C=C(N=[N+](CCN2CCOCC2)C=1N)C1C=CC=CC=1","InChI=1S/C17H22N4O/c1-14-13-16(15-5-3-2-4-6-15)19-21(17(14)18)8-7-20-9-11-22-12-10-20/h2-6,13,18H,7-12H2,1H3/p+1","DEHMKNLLNDHXIC-UHFFFAOYSA-O","?","25","potentiometric","a1/apparent","?","basic",4.84
"15824","N=4(C2(=C1(N=CC=C(C1=CC=C2C(C3(=CC=CC=C3))=CC=4)C5(=CC=CC=C5))))","C1=CC=CC=C1C1=CC=NC2=C3N=CC=C(C3=CC=C12)C1C=CC=CC=1","InChI=1S/C24H16N2/c1-3-7-17(8-4-1)19-13-15-25-23-21(19)11-12-22-20(14-16-26-24(22)23)18-9-5-2-6-10-18/h1-16H","DHDHJYNTEFLIHY-UHFFFAOYSA-N","?","25","potentiometric","a/apparent","?","basic",4.84
"10582","O=C1(OC(C(C)(C)C)C(C1C)=O)","CC1C(=O)C(OC=1O)C(C)(C)C","InChI=1S/C9H14O3/c1-5-6(10)7(9(2,3)4)12-8(5)11/h7,11H,1-4H3","XHGYCKDHQQAHJC-UHFFFAOYSA-N","?",,"potentiometric","a/apparent","?","basic",4.84
"16753","O(C1(=C(C(OC)=CC=C1)C2(=NC=3(N=CC=CC=3(N2)))))C","COC1C=CC=C(OC)C=1C1NC2C=CC=NC=2N=1","InChI=1S/C14H13N3O2/c1-18-10-6-3-7-11(19-2)12(10)14-16-9-5-4-8-15-13(9)17-14/h3-8H,1-2H3,(H,15,16,17)","HHVNFBCKFHEQLH-UHFFFAOYSA-N","?","25","spectrophotometric","a1/apparent","?","basic",4.85
"14017","N1(=NC=CC=2(C1=CC(N)=CC=2))","NC1C=C2N=NC=CC2=CC=1","InChI=1S/C8H7N3/c9-7-2-1-6-3-4-10-11-8(6)5-7/h1-5H,9H2","IXCIEYFFNCPRNQ-UHFFFAOYSA-N","?","20","potentiometric","a/apparent","?","basic",4.85
"15381","O=[N+]([O-])C=2(C=1(C(=NC=CC=1N(CC[NH+](C)C)C)C=CC=2))","CN(C)CCN(C)C1C=CN=C2C=CC=C(C=12)[N+]([O-])=O","InChI=1S/C14H18N4O2/c1-16(2)9-10-17(3)12-7-8-15-11-5-4-6-13(14(11)12)18(19)20/h4-8H,9-10H2,1-3H3","MVWVXIAURFHQRC-UHFFFAOYSA-N","?","25","spectrophotometric","a1/apparent","?","basic",4.86
"13905","N=1(C=2(C(C=CC=1)=CC=CC=2C))","CC1C=CC=C2C=CC=NC2=1","InChI=1S/C10H9N/c1-8-4-2-5-9-6-3-7-11-10(8)9/h2-7H,1H3","JRLTTZUODKEYDH-UHFFFAOYSA-N","?","21","mean from 4","a1/apparent","?","basic",4.87
"16942","P(=O)(NC1(CCCCC1))(CCCCCCC)CCCCCCC","CCCCCCCP(=O)(CCCCCCC)NC1CCCCC1","InChI=1S/C20H42NOP/c1-3-5-7-9-14-18-23(22,19-15-10-8-6-4-2)21-20-16-12-11-13-17-20/h20H,3-19H2,1-2H3,(H,21,22)","DFAIGXVEDCMKPB-UHFFFAOYSA-N","?","25","conductometric","a2/apparent","?","basic",4.87
"13752","N=2(C1(=NC=CN=C1C=NC=2C))","CC1=NC2=NC=CN=C2C=N1","InChI=1S/C7H6N4/c1-5-10-4-6-7(11-5)9-3-2-8-6/h2-4H,1H3","BIGRRCHSUAXSEE-UHFFFAOYSA-N","?","20","potentiometric","a/apparent","?","basic",4.87
"11720","O=C([O-])C1(=C(N)C=CC=C1)","NC1=CC=CC=C1C(O)=O","InChI=1S/C7H7NO2/c8-6-4-2-1-3-5(6)7(9)10/h1-4H,8H2,(H,9,10)","RWZYAGGXGHYGMB-UHFFFAOYSA-N","?","24","mean from 12","a1/apparent","H(+)","basic",4.87
"11197","O(C=2(C1(=NC=CC=C1C=CC=2)))C","COC1=CC=CC2=CC=CN=C21","InChI=1S/C10H9NO/c1-12-9-6-2-4-8-5-3-7-11-10(8)9/h2-7H,1H3","ZLKGGEBOALGXJZ-UHFFFAOYSA-N","?","25","mean from 2","a1/apparent","H+ of NH+","basic",4.88
"10753","N(C1(=CC=CC=C1))C(C=C)(C)C","CC(C)(C=C)NC1C=CC=CC=1","InChI=1S/C11H15N/c1-4-11(2,3)12-10-8-6-5-7-9-10/h4-9,12H,1H2,2-3H3","UVXBXESWOBZYAM-UHFFFAOYSA-N","?","25","potentiometric","b/apparent","?","basic",4.88
"15976","N2(=NC(C1(=CC=CC=C1))=CC(=C2N(CCCC)CCCC)C)","CC1C=C(N=NC=1N(CCCC)CCCC)C1C=CC=CC=1","InChI=1S/C19H27N3/c1-4-6-13-22(14-7-5-2)19-16(3)15-18(20-21-19)17-11-9-8-10-12-17/h8-12,15H,4-7,13-14H2,1-3H3","XMPBCXXAQFXCJV-UHFFFAOYSA-N","?","25","spectrophotometric","a1/apparent","?","basic",4.88
"12393","S1(C(=NC=C1C2(=CC=CC=C2))N(C)C)","CN(C)C1=NC=C(S1)C1C=CC=CC=1","InChI=1S/C11H12N2S/c1-13(2)11-12-8-10(14-11)9-6-4-3-5-7-9/h3-8H,1-2H3","MGGBEIIMQXNWSH-UHFFFAOYSA-N","?","25","spectrophotometric","a1/thermodynamic","?","basic",4.89
"15647","O=C4(N3(C(N2(C(C1(=C(C=CC=C1)CC2))CC3))CC4))","OC1=CCC2N3CCC4C=CC=CC=4C3CCN12","InChI=1S/C15H18N2O/c18-15-6-5-14-16-9-7-11-3-1-2-4-12(11)13(16)8-10-17(14)15/h1-4,6,13-14,18H,5,7-10H2","CXQCFZAAFQUHJT-UHFFFAOYSA-N","?","23","potentiometric","a1/apparent","?","basic",4.89
"16779","N(C1(=CC=CC=C1))(CCCCCC)CCCCCC","CCCCCCN(CCCCCC)C1C=CC=CC=1","InChI=1S/C18H31N/c1-3-5-7-12-16-19(17-13-8-6-4-2)18-14-10-9-11-15-18/h9-11,14-15H,3-8,12-13,16-17H2,1-2H3","DGYRVXQIGUEFFK-UHFFFAOYSA-N","?","24.9","spectrophotometric","a1/apparent","?","basic",4.89
"10282","O(C1(=CN=CC=C1))C","COC1=CN=CC=C1","InChI=1S/C6H7NO/c1-8-6-3-2-4-7-5-6/h2-5H,1H3","UMJSCPRVCHMLSP-UHFFFAOYSA-N","?","23","mean from 4","a1/apparent","?","basic",4.89
"14527","OCCN(C1(=CC=CC=C1))C","CN(CCO)C1C=CC=CC=1","InChI=1S/C9H13NO/c1-10(7-8-11)9-5-3-2-4-6-9/h2-6,11H,7-8H2,1H3","VIIZJXNVVJKISZ-UHFFFAOYSA-N","?","24.9","spectrophotometric","a1/apparent","NH","basic",4.89
"13157","NC1(=C(N)C=CC(=C1)N)","NC1=CC(N)=C(N)C=C1","InChI=1S/C6H9N3/c7-4-1-2-5(8)6(9)3-4/h1-3H,7-9H2","JSYBAZQQYCNZJE-UHFFFAOYSA-N","?, ?",,"potentiometric","b1/apparent","?, ?","basic",4.895
"16890","O=[N+]([O-])C=3(C2(=C(NCC[NH+](C)C)C=1(C(=CC=CC=1)N=C2C=CC=3)))","CN(C)CCNC1=C2C(=CC=CC2=NC2=CC=CC=C21)[N+]([O-])=O","InChI=1S/C17H18N4O2/c1-20(2)11-10-18-17-12-6-3-4-7-13(12)19-14-8-5-9-15(16(14)17)21(22)23/h3-9H,10-11H2,1-2H3,(H,18,19)","VFPXGZCZMBPZJD-UHFFFAOYSA-N","?","25","spectrophotometric","a1/apparent","?","basic",4.9
"15460","N=4(C2(=C1(N=CC=CC1=CC=C2C(C3(=CC=CC=C3))=CC=4)))","C1=CC=CC=C1C1=CC=NC2=C3N=CC=CC3=CC=C12","InChI=1S/C18H12N2/c1-2-5-13(6-3-1)15-10-12-20-18-16(15)9-8-14-7-4-11-19-17(14)18/h1-12H","WQRWUSWJYHBQNF-UHFFFAOYSA-N","?","25","potentiometric","a/apparent","?","basic",4.9
"10632","O=C(NC=1(NC=NC=1C(=O)[O-]))N","NC(=O)NC1NC=NC=1C(O)=O","InChI=1S/C5H6N4O3/c6-5(12)9-3-2(4(10)11)7-1-8-3/h1H,(H,7,8)(H,10,11)(H3,6,9,12)","PQSKWIHIUOGLHX-UHFFFAOYSA-N","?",,"spectrophotometric","a2/apparent","?","basic",4.9
"13069","O=C([O-])C1(=CC=NC=C1)","OC(=O)C1C=CN=CC=1","InChI=1S/C6H5NO2/c8-6(9)5-1-3-7-4-2-5/h1-4H,(H,8,9)","TWBYWOBDOCUKOW-UHFFFAOYSA-N","?","23","mean from 9","a2/apparent","COOH","basic",4.9
"14069","P(=O)(CCC)(CCC)CCC","CCCP(=O)(CCC)CCC","InChI=1S/C9H21OP/c1-4-7-11(10,8-5-2)9-6-3/h4-9H2,1-3H3","SNZSAFILJOCMFM-UHFFFAOYSA-N","?","25","conductometric","a2/apparent","?","basic",4.9
"16919","O=C([O-])C3(OC(OC=2(C=1(C(=NC=CC=1)C=CC=2)))C(O)C(C3O)O)","OC(O)=C1OC(OC2=CC=CC3=NC=CC=C32)C(O)C(O)C1O","InChI=1S/C15H15NO7/c17-10-11(18)13(14(20)21)23-15(12(10)19)22-9-5-1-4-8-7(9)3-2-6-16-8/h1-6,10-12,15,17-21H","AUINEYLKSXXUPY-UHFFFAOYSA-N","?","22","potentiometric","a2/apparent","?","basic",4.91
"16017","N=3(C=1(C(=CC2(=CC=CC=C2(C=1)))C=CC=3))","C1=C2N=CC=CC2=CC2=CC=CC=C21","InChI=1S/C13H9N/c1-2-5-11-9-13-12(6-3-7-14-13)8-10(11)4-1/h1-9H","RFQDDXWZZVRLKO-UHFFFAOYSA-N","?","20","mean from 2","b1/apparent","?","basic",4.92
"10196","N1(=C(C=CC=C1)C=C)","C=CC1C=CC=CN=1","InChI=1S/C7H7N/c1-2-7-5-3-4-6-8-7/h2-6H,1H2","KGIGUEBEKRSTEW-UHFFFAOYSA-N","?","25","potentiometric","a/thermodynamic","NH+","basic",4.92
"11188","OC=2(C1(=NC=C(C)C=C1C=CC=2))","CC1=CN=C2C(O)=CC=CC2=C1","InChI=1S/C10H9NO/c1-7-5-8-3-2-4-9(12)10(8)11-6-7/h2-6,12H,1H3","LHPOFWYKNOUJJN-UHFFFAOYSA-N","?","25","spectrophotometric","b/apparent","?","basic",4.93
"11128","N=1(C=2(C(C=C(C=1C)C)=CC=CC=2))","CC1=CC2=CC=CC=C2N=C1C","InChI=1S/C11H11N/c1-8-7-10-5-3-4-6-11(10)12-9(8)2/h3-7H,1-2H3","FBOFHVFMPNNIKN-UHFFFAOYSA-N","?","25","potentiometric","b/apparent","?","basic",4.93
"13163","N1(=C(N=C(C)C=C1C)N)","CC1=CC(C)=NC(N)=N1","InChI=1S/C6H9N3/c1-4-3-5(2)9-6(7)8-4/h3H,1-2H3,(H2,7,8,9)","IDQNBVFPZMCDDN-UHFFFAOYSA-N","?","24","mean from 3","a/apparent","?","basic",4.93
"13939","O2(C=C(C1(=CN=CC=C1))C=C2)","C1OC=CC=1C1=CN=CC=C1","InChI=1S/C9H7NO/c1-2-8(6-10-4-1)9-3-5-11-7-9/h1-7H","BOYBNNQNYZBFPC-UHFFFAOYSA-N","?","25","spectrophotometric","a1/apparent","?","basic",4.93
"14722","O=C(NC1(=CC=C(N(C)C)C=C1))C=NO","CN(C)C1C=CC(=CC=1)NC(=O)CN=O","InChI=1S/C10H13N3O2/c1-13(2)9-5-3-8(4-6-9)12-10(14)7-11-15/h3-6H,7H2,1-2H3,(H,12,14)","MAQGGIZDFDDDSZ-UHFFFAOYSA-N","?","25","potentiometric","a1/apparent","?","basic",4.94
"16643","OC=2(C1(=NC=CC=C1C=CC=2C(C=C)CC(C)(C)C))","CC(C)(C)CC(C=C)C1C=CC2=CC=CN=C2C=1O","InChI=1S/C17H21NO/c1-5-12(11-17(2,3)4)14-9-8-13-7-6-10-18-15(13)16(14)19/h5-10,12,19H,1,11H2,2-4H3","KFTMHZQMEBYSFX-UHFFFAOYSA-N","?","25",,"a1/apparent","N-H","basic",4.94
"13010","N(C1(=CC(=CC=C1)C))C","CC1C=C(C=CC=1)NC","InChI=1S/C8H11N/c1-7-4-3-5-8(6-7)9-2/h3-6,9H,1-2H3","FBGJJTQNZVNEQU-UHFFFAOYSA-N","?","25","potentiometric","a/thermodynamic","?","basic",4.94
"14387","NC1(=CC=C(C(C)(C)C)C=C1)","CC(C)(C)C1C=CC(N)=CC=1","InChI=1S/C10H15N/c1-10(2,3)8-4-6-9(11)7-5-8/h4-7H,11H2,1-3H3","WRDWWAVNELMWAM-UHFFFAOYSA-N","?","25","potentiometric","a/apparent","?","basic",4.95
"15564","N3(=C(NCC1(=CC=CC=C1))C=2(NN=C(C=2N=C3)C))","CC1=NNC2C(NCC3C=CC=CC=3)=NC=NC=21","InChI=1S/C13H13N5/c1-9-11-12(18-17-9)13(16-8-15-11)14-7-10-5-3-2-4-6-10/h2-6,8H,7H2,1H3,(H,17,18)(H,14,15,16)","CHNKRFXXARCZRN-UHFFFAOYSA-N","?","20","spectrophotometric","a/apparent","?","basic",4.95
"17400","ON=C(NO)C","CC(NO)N=O","InChI=1S/C2H6N2O2/c1-2(3-5)4-6/h2-3,5H,1H3","IFMOKZJAIQFFBJ-UHFFFAOYSA-N","?","20","potentiometric","a1/apparent","?","basic",4.95
"10875","OC1(=C(C(=CN=C1C)CO)CO)","CC1=NC=C(CO)C(CO)=C1O","InChI=1S/C8H11NO3/c1-5-8(12)7(4-11)6(3-10)2-9-5/h2,10-12H,3-4H2,1H3","LXNHXLLTXMVWPM-UHFFFAOYSA-N","?","26","mean from 3","a2/apparent","?","basic",4.96
"12030","N2(C1(=C(C=CC=C1)CCC2))","C1CCNC2C=CC=CC=21","InChI=1S/C9H11N/c1-2-6-9-8(4-1)5-3-7-10-9/h1-2,4,6,10H,3,5,7H2","LBUJPTNKIBCYBY-UHFFFAOYSA-N","?","20","mean from 2","a1/apparent","?","basic",4.96
"13391","O=C([O-])C1(=NC=CC=2(C1=CC=CC=2))","OC(=O)C1N=CC=C2C=CC=CC2=1","InChI=1S/C10H7NO2/c12-10(13)9-8-4-2-1-3-7(8)5-6-11-9/h1-6H,(H,12,13)","XAAKCCMYRKZRAK-UHFFFAOYSA-N","?","25","potentiometric","a/apparent","?","basic",4.97
"14662","NC1(=CC(=CC(=C1)C(C)(C)C)C(C)(C)C)","CC(C)(C)C1C=C(N)C=C(C=1)C(C)(C)C","InChI=1S/C14H23N/c1-13(2,3)10-7-11(14(4,5)6)9-12(15)8-10/h7-9H,15H2,1-6H3","MJKNHXCPGXUEDO-UHFFFAOYSA-N","?","25","potentiometric","a/apparent","?","basic",4.97
"11588","ON=C(N)C1(=CC=CC=C1)","NC(N=O)C1C=CC=CC=1","InChI=1S/C7H8N2O/c8-7(9-10)6-4-2-1-3-5-6/h1-5,7H,8H2","QSEMYHVWGAHCHM-UHFFFAOYSA-N","?","22","mean from 3","a1/apparent","?","basic",4.97
"14954","N=3(C2(=C1(N=CC=CC1=CC=C2C=C(C=3)CC)))","CCC1C=NC2=C3N=CC=CC3=CC=C2C=1","InChI=1S/C14H12N2/c1-2-10-8-12-6-5-11-4-3-7-15-13(11)14(12)16-9-10/h3-9H,2H2,1H3","UWSIFKSDNBKAOK-UHFFFAOYSA-N","?","25","potentiometric","a/apparent","?","basic",4.98
"12194","O(CCNC1(=CC=C(OC)C=C1))CC","COC1=CC=C(C=C1)NCCOCC","InChI=1S/C11H17NO2/c1-3-14-9-8-12-10-4-6-11(13-2)7-5-10/h4-7,12H,3,8-9H2,1-2H3","DYYVBPCKZIFSDM-UHFFFAOYSA-N","?","24.9","spectrophotometric","a1/apparent","NH","basic",4.99
"13896","N=2(C=1(C(=C(C=CC=1)C)C=CC=2))","CC1C=CC=C2N=CC=CC2=1","InChI=1S/C10H9N/c1-8-4-2-6-10-9(8)5-3-7-11-10/h2-7H,1H3","LMYVCXSKCQSIEQ-UHFFFAOYSA-N","?","20","mean from 3","b/apparent","?","basic",5.0
"17152","N=3(C2(=C1(N=CC=CC1=CC=C2C=C(C=3)C)))","CC1C=NC2=C3N=CC=CC3=CC=C2C=1","InChI=1S/C13H10N2/c1-9-7-11-5-4-10-3-2-6-14-12(10)13(11)15-8-9/h2-8H,1H3","PBIOPYCIDCAUBZ-UHFFFAOYSA-N","?","25","potentiometric","a/apparent","?","basic",5.0
"17105","OC2(=C(C(=N)C1(=CC=CC=C1))C=CC=C2)","N=C(C1C=CC=CC=1O)C1C=CC=CC=1","InChI=1S/C13H11NO/c14-13(10-6-2-1-3-7-10)11-8-4-5-9-12(11)15/h1-9,14-15H","DOUQQEKNGVJESK-UHFFFAOYSA-N","?","25","potentiometric","b/apparent","?","basic",5.0
"16322","O=C([O-])C=1(C=3(C(N=C2(C=1C=CC=C2))=CC=CC=3))","OC(=O)C1C2=CC=CC=C2N=C2C=CC=CC2=1","InChI=1S/C14H9NO2/c16-14(17)13-9-5-1-3-7-11(9)15-12-8-4-2-6-10(12)13/h1-8H,(H,16,17)","IYRYQBAAHMBIFT-UHFFFAOYSA-N","?","20","spectrophotometric","a2/apparent","?","basic",5.0
"16387","ClC=3(C2(=NC=1(C(=CC=CC=1)C(=C2C([N+](=O)[O-])=CC=3)NCCC[NH+](C)C)))","CN(C)CCCNC1=C2C(=NC3=CC=CC=C31)C(Cl)=CC=C2[N+]([O-])=O","InChI=1S/C18H19ClN4O2/c1-22(2)11-5-10-20-17-12-6-3-4-7-14(12)21-18-13(19)8-9-15(16(17)18)23(24)25/h3-4,6-9H,5,10-11H2,1-2H3,(H,20,21)","KDWXFOYQRQEDCC-UHFFFAOYSA-N","?","25","spectrophotometric","a1/apparent","?","basic",5.0