"Molecule name","OriginalSmiles","Canonical_QSARr","InChI_Code_QSARr","InChI Key_QSARr","Salt_Solvent (Concatenate)","temp","method","type","group","basicOrAcidic","pKa"
"16372","O2(C1(=C(OC)C=CC5(=C1C34(C2C(O)C=CC3C(N(CCC#N)CC4)C5))))","COC1C=CC2CC3C4C=CC(O)C5OC=1C=2C45CCN3CCC#N","InChI=1S/C20H22N2O3/c1-24-16-6-3-12-11-14-13-4-5-15(23)19-20(13,17(12)18(16)25-19)7-10-22(14)9-2-8-21/h3-6,13-15,19,23H,2,7,9-11H2,1H3","OPUAFQAHKSCSTM-UHFFFAOYSA-N","?","27","potentiometric","a/apparent","?","basic",5.68
"13099","OCCC1(=CC=NC=C1)","OCCC1C=CN=CC=1","InChI=1S/C7H9NO/c9-6-3-7-1-4-8-5-2-7/h1-2,4-5,9H,3,6H2","DWPYQDGDWBKJQL-UHFFFAOYSA-N","?","25","potentiometric","a1/apparent","?","basic",5.68
"13907","N=1(C=2(C(C=CC=1C)=CC=CC=2))","CC1C=CC2=CC=CC=C2N=1","InChI=1S/C10H9N/c1-8-6-7-9-4-2-3-5-10(9)11-8/h2-7H,1H3","SMUQFGGVLNAIOZ-UHFFFAOYSA-N","?","22","mean from 6","a1/apparent","?","basic",5.69
"17053","ClC2(=CC(C(=N)C1(=CC=CC=C1))=CC=C2)","N=C(C1C=C(Cl)C=CC=1)C1C=CC=CC=1","InChI=1S/C13H10ClN/c14-12-8-4-7-11(9-12)13(15)10-5-2-1-3-6-10/h1-9,15H","UAYWTRRTTJSFEK-UHFFFAOYSA-N","?",,"potentiometric","b/apparent","?","basic",5.69
"17592","N1(C(CC)C1)","CCC1CN1","InChI=1S/C4H9N/c1-2-4-3-5-4/h4-5H,2-3H2,1H3","CSWPOLMVXVBCSV-UHFFFAOYSA-N","?","25","mean from 2","b/apparent","?","basic",5.69
"12016","OC2(=CC=1(N=CNC=1C=C2))","OC1=CC2N=CNC=2C=C1","InChI=1S/C7H6N2O/c10-5-1-2-6-7(3-5)9-4-8-6/h1-4,10H,(H,8,9)","KRKSOBREFNTJJY-UHFFFAOYSA-N","?",,"mean from 2","a1/apparent","?","basic",5.69
"12428","O=C([O-])CCC1(=NC=2(C=CC=CC=2(N1)))","OC(O)=CCC1NC2C=CC=CC=2N=1","InChI=1S/C10H10N2O2/c13-10(14)6-5-9-11-7-3-1-2-4-8(7)12-9/h1-4,6,13-14H,5H2,(H,11,12)","BJABXUAFRFFWAW-UHFFFAOYSA-N","?","24.9","spectrophotometric","a3/apparent","NH-C-NH(+)","basic",5.7
"13660","O=C([O-])C1(=NC=C(CCCC)C=C1)","CCCCC1=CC=C(N=C1)C(O)=O","InChI=1S/C10H13NO2/c1-2-3-4-8-5-6-9(10(12)13)11-7-8/h5-7H,2-4H2,1H3,(H,12,13)","DGMPVYSXXIOGJY-UHFFFAOYSA-N","?",,,"b1","?","basic",5.7
"17006","O=C(OCC)CC1(=NC=2(C=CC=CC=2(N1)))","CCOC(O)=CC1NC2=CC=CC=C2N=1","InChI=1S/C11H12N2O2/c1-2-15-11(14)7-10-12-8-5-3-4-6-9(8)13-10/h3-7,14H,2H2,1H3,(H,12,13)","YFRDOWNFCUFEML-UHFFFAOYSA-N","?","24.9","spectrophotometric","a2/apparent","COOH","basic",5.7
"15464","O4(C(C1(=NC=CC2(=C1NC=3(C=CC=CC2=3))))=CC=C4CO)","OCC1=CC=C(O1)C1=NC=CC2=C1NC1C=CC=CC2=1","InChI=1S/C16H12N2O2/c19-9-10-5-6-14(20-10)16-15-12(7-8-17-16)11-3-1-2-4-13(11)18-15/h1-8,18-19H,9H2","KFUCYPGCMLPUMT-UHFFFAOYSA-N","?","25","spectrophotometric","b1/apparent","?","basic",5.7
"16349","OC(CN(CC(O)CC)CCCCCCCCCCCCCC)CC","CCCCCCCCCCCCCCN(CC(O)CC)CC(O)CC","InChI=1S/C22H47NO2/c1-4-7-8-9-10-11-12-13-14-15-16-17-18-23(19-21(24)5-2)20-22(25)6-3/h21-22,24-25H,4-20H2,1-3H3","CMXSPVQSHXOGDZ-UHFFFAOYSA-N","?","20","potentiometric","a1/apparent","-NH3%+&","basic",5.7
"17910","N1(=C(N)C=CN=C1)","NC1C=CN=CN=1","InChI=1S/C4H5N3/c5-4-1-2-6-3-7-4/h1-3H,(H2,5,6,7)","OYRRZWATULMEPF-UHFFFAOYSA-N","?","20","mean from 2","a1/apparent","?","basic",5.7
"13048","OC1(=C(N)C=CC(=C1)O)","NC1C=CC(O)=CC=1O","InChI=1S/C6H7NO2/c7-5-2-1-4(8)3-6(5)9/h1-3,8-9H,7H2","ROCVGJLXIARCAC-UHFFFAOYSA-N","?","20","spectrophotometric","a1/apparent","?","basic",5.7
"14503","OCCCCC1(=CN=CC=C1)","OCCCCC1=CN=CC=C1","InChI=1S/C9H13NO/c11-7-2-1-4-9-5-3-6-10-8-9/h3,5-6,8,11H,1-2,4,7H2","GPJCBIYBTLQPQG-UHFFFAOYSA-N","?","25","potentiometric","a1/apparent","?","basic",5.7
"13963","OC2(=CC=1(C(=CC=NC=1)C=C2))","OC1=CC2=CN=CC=C2C=C1","InChI=1S/C9H7NO/c11-9-2-1-7-3-4-10-6-8(7)5-9/h1-6,11H","WCRKBMABEPCYII-UHFFFAOYSA-N","?","20","potentiometric","a1/apparent","?","basic",5.7
"17820","S1(C(=NC=C1C)N)","CC1=CN=C(N)S1","InChI=1S/C4H6N2S/c1-3-2-6-4(5)7-3/h2H,1H3,(H2,5,6)","GUABFMPMKJGSBQ-UHFFFAOYSA-N","?","25","potentiometric","a1/thermodynamic","?","basic",5.71
"11765","OCCCC1(=NC=CC=C1)","OCCCC1C=CC=CN=1","InChI=1S/C8H11NO/c10-7-3-5-8-4-1-2-6-9-8/h1-2,4,6,10H,3,5,7H2","FVZXYJDGVYLMDB-UHFFFAOYSA-N","?","25","potentiometric","a1/apparent","?","basic",5.71
"10841","OCCCCCC1(=CN=CC=C1)","OCCCCCC1=CN=CC=C1","InChI=1S/C10H15NO/c12-8-3-1-2-5-10-6-4-7-11-9-10/h4,6-7,9,12H,1-3,5,8H2","ZTLBNLWBIMJSES-UHFFFAOYSA-N","?","25","potentiometric","a1/apparent","?","basic",5.72
"13021","N1(=CC(=CC=C1)C(C)C)","CC(C)C1C=NC=CC=1","InChI=1S/C8H11N/c1-7(2)8-4-3-5-9-6-8/h3-7H,1-2H3","PUACTIIESPYWSI-UHFFFAOYSA-N","?","25","spectrophotometric","a/thermodynamic","NHE+","basic",5.72
"11624","N(C1(=CC=C(C)C=C1))CC","CC1C=CC(=CC=1)NCC","InChI=1S/C9H13N/c1-3-10-9-6-4-8(2)5-7-9/h4-7,10H,3H2,1-2H3","AASABFUMCBTXRL-UHFFFAOYSA-N","?","22","potentiometric","a/thermodynamic","?","basic",5.72
"11623","N1(=C(C=CC=C1)C(C)(C)C)","CC(C)(C)C1C=CC=CN=1","InChI=1S/C9H13N/c1-9(2,3)8-6-4-5-7-10-8/h4-7H,1-3H3","UUIMDJFBHNDZOW-UHFFFAOYSA-N","?","25","mean from 2","a1/thermodynamic","?","basic",5.72
"16891","O3(CCN(CCNC2(=NN=C(C1(=CC=CC=C1))C=C2CC))CC3)","CCC1=CC(=NN=C1NCCN1CCOCC1)C1C=CC=CC=1","InChI=1S/C18H24N4O/c1-2-15-14-17(16-6-4-3-5-7-16)20-21-18(15)19-8-9-22-10-12-23-13-11-22/h3-7,14H,2,8-13H2,1H3,(H,19,21)","OJRBCZYVLIYUNO-UHFFFAOYSA-N","?, ?","25","potentiometric","a1/apparent","NH(+), ?","basic",5.725
"13575","O=C(N)CCCCC1(=NC=CC=C1)","N=C(O)CCCCC1=CC=CC=N1","InChI=1S/C10H14N2O/c11-10(13)7-2-1-5-9-6-3-4-8-12-9/h3-4,6,8H,1-2,5,7H2,(H2,11,13)","LIOONPAWZRVMBU-UHFFFAOYSA-N","?","25","potentiometric","a1/apparent","?","basic",5.73
"11040","N=2(C1(=C(C=CC=C1)N(C=2)C(C)C))","CC(C)N1C=NC2C=CC=CC1=2","InChI=1S/C10H12N2/c1-8(2)12-7-11-9-5-3-4-6-10(9)12/h3-8H,1-2H3","UMJVKPYTXOUBSB-UHFFFAOYSA-N","?","25","potentiometric","a/apparent","?","basic",5.74
"14903","O(CCN=C(C1(=CC=CC=C1))C(O)(C)C)C","COCCN=C(C1C=CC=CC=1)C(C)(C)O","InChI=1S/C13H19NO2/c1-13(2,15)12(14-9-10-16-3)11-7-5-4-6-8-11/h4-8,15H,9-10H2,1-3H3","SNFZZJYSQBFZLQ-UHFFFAOYSA-N","?","30","spectrophotometric","a1/apparent","NH","basic",5.75
"16412","O=C2(N(C(=O)C(C1(=CCCCC1))(C)C(N2C)=O)CCN3(CCOCC3))","CN1C(=O)C(C)(C2CCCCC=2)C(=O)N(CCN2CCOCC2)C1=O","InChI=1S/C18H27N3O4/c1-18(14-6-4-3-5-7-14)15(22)19(2)17(24)21(16(18)23)9-8-20-10-12-25-13-11-20/h6H,3-5,7-13H2,1-2H3","CCALQQLZBBGVAS-UHFFFAOYSA-N","?","20","potentiometric","a1/apparent","?","basic",5.75
"12018","O1(C(=NC2(=C1CCCC2))N)","NC1=NC2CCCCC=2O1","InChI=1S/C7H10N2O/c8-7-9-5-3-1-2-4-6(5)10-7/h1-4H2,(H2,8,9)","WHPXIOARQDHUIK-UHFFFAOYSA-N","?","21",,"a1/apparent","NH(+)","basic",5.75
"16577","O=[N+]([O-])C=2(C=1(C(=NC=CC=1NCC[NH+](C)C)C=CC=2))","CN(C)CCNC1C=CN=C2C=CC=C(C=12)[N+]([O-])=O","InChI=1S/C13H16N4O2/c1-16(2)9-8-15-11-6-7-14-10-4-3-5-12(13(10)11)17(18)19/h3-7H,8-9H2,1-2H3,(H,14,15)","QRSXMZSYORXZBR-UHFFFAOYSA-N","?","25","spectrophotometric","a1/apparent","?","basic",5.77
"16056","N=3(C2(=C1(N=CC=CC1=CC=C2C=4(CCCC=4(C=3)))))","C1CCC2C3=CC=C4C=CC=NC4=C3N=CC=21","InChI=1S/C15H12N2/c1-3-11-9-17-15-13(12(11)5-1)7-6-10-4-2-8-16-14(10)15/h2,4,6-9H,1,3,5H2","OGWLKYOZFZCYEU-UHFFFAOYSA-N","?","25","potentiometric","a/apparent","?","basic",5.78
"16317","N1(=C(NC=C1CC=2(N=CNC=2))CC3(=NC=CN3))","C(C1NC=CN=1)C1NC=C(CC2=CNC=N2)N=1","InChI=1S/C11H12N6/c1-2-14-10(13-1)4-11-15-6-9(17-11)3-8-5-12-7-16-8/h1-2,5-7H,3-4H2,(H,12,16)(H,13,14)(H,15,17)","STVWNEVGTHFIJG-UHFFFAOYSA-N","?, ?, ?","24.85","potentiometric","a3/apparent","NH, NH, NH","basic",5.783333333333333
"14037","N2(=C(N)C=1(C(=CC=CC=1)N=C2))","NC1=NC=NC2=CC=CC=C21","InChI=1S/C8H7N3/c9-8-6-3-1-2-4-7(6)10-5-11-8/h1-5H,(H2,9,10,11)","DRYRBWIFRVMRPV-UHFFFAOYSA-N","?","20","mean from 2","a/apparent","?","basic",5.79
"13454","N1(=C(N)C=CC=C1C2(=NC=CC=C2))","NC1C=CC=C(N=1)C1C=CC=CN=1","InChI=1S/C10H9N3/c11-10-6-3-5-9(13-10)8-4-1-2-7-12-8/h1-7H,(H2,11,13)","FXVYZSKRRVSINZ-UHFFFAOYSA-N","?","20","spectrophotometric","a1/apparent","=NH(+)-","basic",5.8
"13402","OC=2(C1(=NC=C(C)C(=C1C=CC=2)C))","CC1=C2C=CC=C(O)C2=NC=C1C","InChI=1S/C11H11NO/c1-7-6-12-11-9(8(7)2)4-3-5-10(11)13/h3-6,13H,1-2H3","LNNMENPNLRCNSR-UHFFFAOYSA-N","?",,"spectrophotometric","b/apparent","?","basic",5.8
"11715","O=C([O-])C1(=NC(=CC=C1)C)","CC1C=CC=C(N=1)C(O)=O","InChI=1S/C7H7NO2/c1-5-3-2-4-6(8-5)7(9)10/h2-4H,1H3,(H,9,10)","LTUUGSGSUZRPRV-UHFFFAOYSA-N","?","25","mean from 2","a1/apparent","?","basic",5.8
"17140","N4(=C2(N(C1(=NCCN1C=3(N2CCN=3)))CC4))","C1CN=C2N1C1=NCCN1C1=NCCN12","InChI=1S/C9H12N6/c1-4-13-7(10-1)14-5-2-12-9(14)15-6-3-11-8(13)15/h1-6H2","KEJXVKYIGLPAHX-UHFFFAOYSA-N","?",,,"a/apparent","?","basic",5.8
"11140","S(C=1(C=2(C(N=CC=1)=CC=CC=2)))C","CSC1=CC=NC2=CC=CC=C12","InChI=1S/C10H9NS/c1-12-10-6-7-11-9-5-3-2-4-8(9)10/h2-7H,1H3","UPWGLVMHTJEWLR-UHFFFAOYSA-N","?","20","spectrophotometric","a/apparent","NH%+&","basic",5.81
"11996","N=2(C1(=C(C=CC(=C1)C)NC=2))","CC1=CC2N=CNC=2C=C1","InChI=1S/C8H8N2/c1-6-2-3-7-8(4-6)10-5-9-7/h2-5H,1H3,(H,9,10)","RWXZXCZBMQPOBF-UHFFFAOYSA-N","?","25","potentiometric","a/apparent","?","basic",5.81
"11636","N1(=CC(=CC=C1)C(C)(C)C)","CC(C)(C)C1C=NC=CC=1","InChI=1S/C9H13N/c1-9(2,3)8-5-4-6-10-7-8/h4-7H,1-3H3","FBUIIWHYTLCORM-UHFFFAOYSA-N","?","25","spectrophotometric","a/thermodynamic","NHE+","basic",5.82
"15873","OC(C1(=CC=C(N)C=C1))(C2(=CC=C(N)C=C2))C3(=CC=CC=C3)","NC1C=CC(=CC=1)C(O)(C1C=CC=CC=1)C1C=CC(N)=CC=1","InChI=1S/C19H18N2O/c20-17-10-6-15(7-11-17)19(22,14-4-2-1-3-5-14)16-8-12-18(21)13-9-16/h1-13,22H,20-21H2","RPDAPRWXVMJJSE-UHFFFAOYSA-N","?","25","spectrophotometric","a/apparent","?","basic",5.83
"14517","OCCCCC1(=NC=CC=C1)","OCCCCC1C=CC=CN=1","InChI=1S/C9H13NO/c11-8-4-2-6-9-5-1-3-7-10-9/h1,3,5,7,11H,2,4,6,8H2","QYSOMFUUWROROT-UHFFFAOYSA-N","?","25","potentiometric","a1/apparent","?","basic",5.83
"11994","N#CC1(=CN2(CCC1CC2))","N#CC1=CN2CCC1CC2","InChI=1S/C8H10N2/c9-5-8-6-10-3-1-7(8)2-4-10/h6-7H,1-4H2","WSZVAPAWOWNVFG-UHFFFAOYSA-N","?","25",,"a/apparent","?","basic",5.84
"11677","S(C(=N)C1(=CC=CC=C1))C","CSC(=N)C1C=CC=CC=1","InChI=1S/C8H9NS/c1-10-8(9)7-5-3-2-4-6-7/h2-6,9H,1H3","YSVFNBWEWVQSTK-UHFFFAOYSA-N","?","25","mean from 2","a1/apparent","?","basic",5.84
"14411","N(C1(=C(C=CC=C1C)C))(C)C","CC1C=CC=C(C)C=1N(C)C","InChI=1S/C10H15N/c1-8-6-5-7-9(2)10(8)11(3)4/h5-7H,1-4H3","SCVRZFQSPISLTD-UHFFFAOYSA-N","?","23","potentiometric","a/apparent","?","basic",5.85
"11126","N=2(C=1(C(=CC(C)=CC=1)C=CC=2C))","CC1C=C2C=CC(C)=NC2=CC=1","InChI=1S/C11H11N/c1-8-3-6-11-10(7-8)5-4-9(2)12-11/h3-7H,1-2H3","JJPSZKIOGBRMHK-UHFFFAOYSA-N","?","25","mean from 3","a1/apparent","?","basic",5.85
"12000","N#CC1(N2(CCC(C1)CC2))","N#CC1CC2CCN1CC2","InChI=1S/C8H12N2/c9-6-8-5-7-1-3-10(8)4-2-7/h7-8H,1-5H2","NZOYWQFJJHBAAF-UHFFFAOYSA-N","?","25",,"a1/apparent","?","basic",5.85
"13406","OC=2(C1(=NC(=C(C)C=C1C=CC=2)C))","CC1N=C2C(O)=CC=CC2=CC=1C","InChI=1S/C11H11NO/c1-7-6-9-4-3-5-10(13)11(9)12-8(7)2/h3-6,13H,1-2H3","ZBLCWYDHYTWUSK-UHFFFAOYSA-N","?","25","spectrophotometric","b/apparent","?","basic",5.86
"14815","O=C3(N2(C1(=C(C=C(OC)C(=C1)OC)C57(C2C4(C6(C(=CCOC4(C3))CN(C5C6)CC7))))))","COC1=CC2=C(C=C1OC)C13CCN4CC5=CCOC6C=C(O)N2C1C6C5CC34","InChI=1S/C23H26N2O4/c1-27-16-8-14-15(9-17(16)28-2)25-20(26)10-18-21-13-7-19-23(14,22(21)25)4-5-24(19)11-12(13)3-6-29-18/h3,8-10,13,18-19,21-22,26H,4-7,11H2,1-2H3","MAMZURMAKQVAPJ-UHFFFAOYSA-N","?","19","mean from 2","b1/apparent","?","basic",5.86
"14485","O=C([O-])C1(=NC=C(CC)C=C1)","CCC1=CC=C(N=C1)C(O)=O","InChI=1S/C8H9NO2/c1-2-6-3-4-7(8(10)11)9-5-6/h3-5H,2H2,1H3,(H,10,11)","SHCDHIRSCJOUBW-UHFFFAOYSA-N","?","20",,"a/apparent","?","basic",5.86
"12466","N2(=CC=C(C=CC1(=CC=CC=C1))C=C2)","C1=CC=CC=C1C=CC1C=CN=CC=1","InChI=1S/C13H11N/c1-2-4-12(5-3-1)6-7-13-8-10-14-11-9-13/h1-11H","QKHRGPYNTXRMSL-UHFFFAOYSA-N","?, ?","25","spectrophotometric","a1/apparent","?, ?","basic",5.869999999999999
"11577","O=C(NC1(=CC=NC=C1))C","C/C(/O)=N\C1C=CN=CC=1","InChI=1S/C7H8N2O/c1-6(10)9-7-2-4-8-5-3-7/h2-5H,1H3,(H,8,9,10)","BIJAWQUBRNHZGE-UHFFFAOYSA-N","?",,"potentiometric","a/apparent","?","basic",5.87
"17154","N=2(C=1(C(=CC(N)=CC=1)C=C3(C=2C=CC=C3)))","NC1C=C2C=C3C=CC=CC3=NC2=CC=1","InChI=1S/C13H10N2/c14-11-5-6-13-10(8-11)7-9-3-1-2-4-12(9)15-13/h1-8H,14H2","UTXPWBKKZFLMPZ-UHFFFAOYSA-N","?","20","spectrophotometric","a/apparent","?","basic",5.88
"15702","O=C([O-])C=1(N(N=C(C=1C(=O)[O-])C)C2(=CC=CC=C2))","CC1=NN(C(=C1C(O)=O)C(O)=O)C1C=CC=CC=1","InChI=1S/C12H10N2O4/c1-7-9(11(15)16)10(12(17)18)14(13-7)8-5-3-2-4-6-8/h2-6H,1H3,(H,15,16)(H,17,18)","UPFHVPAKJXNRDG-UHFFFAOYSA-N","?",,"potentiometric","a2/apparent","?","basic",5.89
"15090","O(C2(=CC=C(NC1(=CC=C(N)C=C1))C=C2))C","COC1C=CC(=CC=1)NC1C=CC(N)=CC=1","InChI=1S/C13H14N2O/c1-16-13-8-6-12(7-9-13)15-11-4-2-10(14)3-5-11/h2-9,15H,14H2,1H3","RBLUJIWKMSZIMK-UHFFFAOYSA-N","?","20","potentiometric","a/apparent","?","basic",5.9
"16302","N=3(C2(=C1(N=CC=C(C1=CC(=C2C=C(C=3)C)C)C)))","CC1C=C2C(N=CC=C2C)=C2N=CC(C)=CC=12","InChI=1S/C15H14N2/c1-9-6-12-11(3)7-13-10(2)4-5-16-14(13)15(12)17-8-9/h4-8H,1-3H3","QRHQZHJYHKMIJA-UHFFFAOYSA-N","?","25","potentiometric","a/apparent","?","basic",5.9
"13119","ON1(C(C(C)CC1)(C)C)","CC1CCN(O)C1(C)C","InChI=1S/C7H15NO/c1-6-4-5-8(9)7(6,2)3/h6,9H,4-5H2,1-3H3","YIOJMPBKRXTZEL-UHFFFAOYSA-N","?",,"potentiometric","a/apparent","NH+","basic",5.9
"11759","OCCCC1(=CC=NC=C1)","OCCCC1C=CN=CC=1","InChI=1S/C8H11NO/c10-7-1-2-8-3-5-9-6-4-8/h3-6,10H,1-2,7H2","PZVZGDBCMQBRMA-UHFFFAOYSA-N","?","25","potentiometric","a1/apparent","?","basic",5.9
"15792","O=C([O-])C=1(N=CN(C=1N)C2(OC(CO)C(C2O)O))","NC1=C(N=CN1C1OC(CO)C(O)C1O)C(O)=O","InChI=1S/C9H13N3O6/c10-7-4(9(16)17)11-2-12(7)8-6(15)5(14)3(1-13)18-8/h2-3,5-6,8,13-15H,1,10H2,(H,16,17)","GCEYZZWMVRITSE-UHFFFAOYSA-N","?","27","potentiometric","a1/apparent","N3%+&-H","basic",5.9
"13576","O=C(N)CCCCC1(=CC=NC=C1)","N=C(O)CCCCC1C=CN=CC=1","InChI=1S/C10H14N2O/c11-10(13)4-2-1-3-9-5-7-12-8-6-9/h5-8H,1-4H2,(H2,11,13)","ISLTWYMYRXOOOR-UHFFFAOYSA-N","?","25","potentiometric","a1/apparent","?","basic",5.92
"10849","OCCCCCC1(=NC=CC=C1)","OCCCCCC1C=CC=CN=1","InChI=1S/C10H15NO/c12-9-5-1-2-6-10-7-3-4-8-11-10/h3-4,7-8,12H,1-2,5-6,9H2","JOWYHBMAGQHBEA-UHFFFAOYSA-N","?","25","potentiometric","a1/apparent","?","basic",5.93
"16299","N=3(C2(=C1(N=CC=CC1=C(C)C=C2C(C)=C(C=3)C)))","CC1C=NC2=C3N=CC=CC3=C(C)C=C2C=1C","InChI=1S/C15H14N2/c1-9-7-13-11(3)10(2)8-17-15(13)14-12(9)5-4-6-16-14/h4-8H,1-3H3","OFBBRTYNWNPWFH-UHFFFAOYSA-N","?","25","potentiometric","a/apparent","?","basic",5.93
"14952","N=3(C2(=C1(N=CC=C(C1=CC=C2C(C)=CC=3)C)))","CC1=CC=NC2=C3N=CC=C(C)C3=CC=C12","InChI=1S/C14H12N2/c1-9-5-7-15-13-11(9)3-4-12-10(2)6-8-16-14(12)13/h3-8H,1-2H3","JIVLDFFWTQYGSR-UHFFFAOYSA-N","?","25","potentiometric","a/apparent","?","basic",5.94
"10195","N1(=CC=C(CC)C=C1)","CCC1C=CN=CC=1","InChI=1S/C7H9N/c1-2-7-3-5-8-6-4-7/h3-6H,2H2,1H3","VJXRKZJMGVSXPX-UHFFFAOYSA-N","?","25","mean from 5","a1/apparent","NH(+)","basic",5.94
"17410","ON=C(N)CC","CCC(N)N=O","InChI=1S/C3H8N2O/c1-2-3(4)5-6/h3H,2,4H2,1H3","YXVGTXDOLCHDTO-UHFFFAOYSA-N","?","20","potentiometric","a1/apparent","?","basic",5.95
"15870","OC3(=CC=C(C=NC2(=CC=C(C1(=CC=C(N)C=C1))C=C2))C=C3)","NC1C=CC(=CC=1)C1C=CC(=CC=1)N=CC1C=CC(O)=CC=1","InChI=1S/C19H16N2O/c20-17-7-3-15(4-8-17)16-5-9-18(10-6-16)21-13-14-1-11-19(22)12-2-14/h1-13,22H,20H2","PDVSNXIRLRXOOK-UHFFFAOYSA-N","?, ?","25","spectrophotometric","a2/apparent","?, ?","basic",5.955
"14963","N=3(C2(=C1(N=CC=CC1=CC=C2C(C)=CC=3C)))","CC1C=C(C)C2=CC=C3C=CC=NC3=C2N=1","InChI=1S/C14H12N2/c1-9-8-10(2)16-14-12(9)6-5-11-4-3-7-15-13(11)14/h3-8H,1-2H3","KXSJVVRUZOPMJE-UHFFFAOYSA-N","?","25","potentiometric","a/apparent","?","basic",5.96
"15447","O=C(NCCN1(CCOCC1))C2(=C(C=C(N)C=C2C)C)","CC1C=C(N)C=C(C)C=1C(=O)NCCN1CCOCC1","InChI=1S/C15H23N3O2/c1-11-9-13(16)10-12(2)14(11)15(19)17-3-4-18-5-7-20-8-6-18/h9-10H,3-8,16H2,1-2H3,(H,17,19)","PJKDRPSVSBTBIO-UHFFFAOYSA-N","?","25",,"a1/apparent","?","basic",5.96
"17065","O=C(C1(=CC=CC=C1))CN2(CCOCC2)","OC(=CN1CCOCC1)C1C=CC=CC=1","InChI=1S/C12H15NO2/c14-12(11-4-2-1-3-5-11)10-13-6-8-15-9-7-13/h1-5,10,14H,6-9H2","BIAQOFMVFYVZBL-UHFFFAOYSA-N","?","25","potentiometric","a1/thermodynamic","NH(1+)","basic",5.97
"10229","S(C1(=CC=NC=C1))C","CSC1C=CN=CC=1","InChI=1S/C6H7NS/c1-8-6-2-4-7-5-3-6/h2-5H,1H3","XCHSSZMKKXPBAI-UHFFFAOYSA-N","?","20","potentiometric","a/apparent","NH%+&","basic",5.97
"13022","N1(=C(C=CC=C1)CCC)","CCCC1C=CC=CN=1","InChI=1S/C8H11N/c1-2-5-8-6-3-4-7-9-8/h3-4,6-7H,2,5H2,1H3","OIALIKXMLIAOSN-UHFFFAOYSA-N","?","25","spectrophotometric","a/thermodynamic","NHE+","basic",5.97
"17852","N1(=C(C=CC=C1)C)","CC1C=CC=CN=1","InChI=1S/C6H7N/c1-6-4-2-3-5-7-6/h2-5H,1H3","BSKHPKMHTQYZBB-UHFFFAOYSA-N","?","24","mean from 10","a1/apparent","NH(1+)","basic",5.98
"10197","N1(=C(C=CC=C1)CC)","CCC1C=CC=CN=1","InChI=1S/C7H9N/c1-2-7-5-3-4-6-8-7/h3-6H,2H2,1H3","NRGGMCIBEHEAIL-UHFFFAOYSA-N","?","25","mean from 5","a1/apparent","?","basic",5.98
"15105","O2(CCN(CC(O)CN1(CCOCC1))CC2)","OC(CN1CCOCC1)CN1CCOCC1","InChI=1S/C11H22N2O3/c14-11(9-12-1-5-15-6-2-12)10-13-3-7-16-8-4-13/h11,14H,1-10H2","YTAILAZJMHRYOR-UHFFFAOYSA-N","?, ?","25","potentiometric","a2/apparent","?, ?","basic",5.99
"16300","N=3(C2(=C1(N=CC=C(C1=CC=C2C(C)=C(C=3)C)C)))","CC1C=NC2=C3N=CC=C(C)C3=CC=C2C=1C","InChI=1S/C15H14N2/c1-9-6-7-16-14-12(9)4-5-13-11(3)10(2)8-17-15(13)14/h4-8H,1-3H3","RFINKOIZFSHBNU-UHFFFAOYSA-N","?","25","potentiometric","a/apparent","?","basic",5.99
"14949","O=C2(C1(=C([O-])N=CN=C1C(=O)C3(=C2N=CN3)))","OC1=NC=NC2=C1C(=O)C1N=CNC=1C2=O","InChI=1S/C9H4N4O3/c14-7-3-4(10-2-13-9(3)16)8(15)6-5(7)11-1-12-6/h1-2H,(H,11,12)(H,10,13,16)","IWROETMFTPFQHX-UHFFFAOYSA-N","?","30","spectrophotometric","a1/apparent","?","basic",5.99
"17212","N3(=CC=2(N=C(C1(=CC=CC=C1))NC=2C=C3))","C1=NC=CC2NC(=NC=21)C1C=CC=CC=1","InChI=1S/C12H9N3/c1-2-4-9(5-3-1)12-14-10-6-7-13-8-11(10)15-12/h1-8H,(H,14,15)","HXHORNUQSDXBNW-UHFFFAOYSA-N","?","25","spectrophotometric","a1/apparent","?","basic",6.0
"11643","N(C1(=C(C=CC=C1)C))(C)C","CC1C=CC=CC=1N(C)C","InChI=1S/C9H13N/c1-8-6-4-5-7-9(8)10(2)3/h4-7H,1-3H3","JDEJGVSZUIJWBM-UHFFFAOYSA-N","?","25","mean from 3","b/thermodynamic","?","basic",6.0
"13826","N=2(C(C1(=CC=CC=C1))=CNC=2)","C1NC=C(N=1)C1C=CC=CC=1","InChI=1S/C9H8N2/c1-2-4-8(5-3-1)9-6-10-7-11-9/h1-7H,(H,10,11)","XHLKOHSAWQPOFO-UHFFFAOYSA-N","?","25","potentiometric","a/thermodynamic","?","basic",6.0
"13325","O=C([O-])C2(=CC=1(N=C(C)NC=1C=C2))","CC1NC2=CC=C(C=C2N=1)C(O)=O","InChI=1S/C9H8N2O2/c1-5-10-7-3-2-6(9(12)13)4-8(7)11-5/h2-4H,1H3,(H,10,11)(H,12,13)","GZHWABCBKGMLIE-UHFFFAOYSA-N","?","25",,"apparent","?","basic",6.0
"14512","OCCCCC1(=CC=NC=C1)","OCCCCC1C=CN=CC=1","InChI=1S/C9H13NO/c11-8-2-1-3-9-4-6-10-7-5-9/h4-7,11H,1-3,8H2","HFGNRLFZUNCBPF-UHFFFAOYSA-N","?","25","potentiometric","a1/apparent","?","basic",6.01
"14959","N=2(C1(=C3(C(=CC=C1C(C)=CC=2N)C=CC=C3)))","CC1=CC(N)=NC2C1=CC=C1C=CC=CC1=2","InChI=1S/C14H12N2/c1-9-8-13(15)16-14-11(9)7-6-10-4-2-3-5-12(10)14/h2-8H,1H3,(H2,15,16)","XYTOAXAQLHYOMX-UHFFFAOYSA-N","?","20","spectrophotometric","a/apparent","?","basic",6.02
"13003","N1(=CC=C(C(C)C)C=C1)","CC(C)C1C=CN=CC=1","InChI=1S/C8H11N/c1-7(2)8-3-5-9-6-4-8/h3-7H,1-2H3","FRGXNJWEDDQLFH-UHFFFAOYSA-N","?","25","spectrophotometric","a/thermodynamic","NHE+","basic",6.02
"10751","N(C1(=CC=CC=C1))(C(CC)C)C","CCC(C)N(C)C1C=CC=CC=1","InChI=1S/C11H17N/c1-4-10(2)12(3)11-8-6-5-7-9-11/h5-10H,4H2,1-3H3","REFGXLSOFBWGAQ-UHFFFAOYSA-N","?",,,"a/apparent","?","basic",6.03
"17155","N2(=NC1(=C(CCCC1)C3(=C2CCCCC3)))","C1CCCCC2C3CCCCC=3N=NC=21","InChI=1S/C13H18N2/c1-2-6-10-11-7-4-5-9-13(11)15-14-12(10)8-3-1/h1-9H2","BFZGBAVZRMGYIB-UHFFFAOYSA-N","?","16.5","potentiometric","a/apparent","?","basic",6.03
"10064","N1(=C(N)C(N)=CN=C1)","NC1=CN=CN=C1N","InChI=1S/C4H6N4/c5-3-1-7-2-8-4(3)6/h1-2H,5H2,(H2,6,7,8)","PPAULTVPKLVLII-UHFFFAOYSA-N","?","20","mean from 2","a2/apparent","?","basic",6.03
"17150","N=2(C=1(C(=C(N)C=CC=1)C=C3(C=2C=CC=C3)))","NC1C=CC=C2N=C3C=CC=CC3=CC2=1","InChI=1S/C13H10N2/c14-11-5-3-7-13-10(11)8-9-4-1-2-6-12(9)15-13/h1-8H,14H2","LOMMDWBTANPFEJ-UHFFFAOYSA-N","?","20","spectrophotometric","a/apparent","?","basic",6.04
"16707","S2(C1(=C(C=CC(=C1)C(=O)[O-])C(=C2CN3(C=NC=C3))C))","CC1=C(CN2C=NC=C2)SC2=CC(=CC=C21)C(O)=O","InChI=1S/C14H12N2O2S/c1-9-11-3-2-10(14(17)18)6-12(11)19-13(9)7-16-5-4-15-8-16/h2-6,8H,7H2,1H3,(H,17,18)","BCWNQOJBNHQVGC-UHFFFAOYSA-N","?","25",,"a1/apparent","NH","basic",6.04