"Molecule name","OriginalSmiles","Canonical_QSARr","InChI_Code_QSARr","InChI Key_QSARr","Salt_Solvent (Concatenate)","temp","method","type","group","basicOrAcidic","pKa"
"12031","N2(C(C1(=CC=C(C)C=C1))C2)","CC1=CC=C(C=C1)C1CN1","InChI=1S/C9H11N/c1-7-2-4-8(5-3-7)9-6-10-9/h2-5,9-10H,6H2,1H3","WUBWIOKIYUIHOZ-UHFFFAOYSA-N","?","25","potentiometric","a1/apparent","?","basic",6.76
"14637","O=C(NCC(=O)[O-])C([NH3+])CC=1(N=CNC=1)","NC(CC1=CNC=N1)=C(O)N=CC(O)O","InChI=1S/C8H12N4O3/c9-6(1-5-2-10-4-12-5)8(15)11-3-7(13)14/h2-4,7,13-15H,1,9H2,(H,10,12)","MKIGTIQWEHZQAV-UHFFFAOYSA-N","?, ?, ?","25","potentiometric","a2/apparent","?, ?, ?","basic",6.763333333333333
"15533","S3(C2(=C(C=C(CN1(C=NC=C1))C=C2)C=C3C(=O)[O-]))","OC(=O)C1=CC2=CC(CN3C=NC=C3)=CC=C2S1","InChI=1S/C13H10N2O2S/c16-13(17)12-6-10-5-9(1-2-11(10)18-12)7-15-4-3-14-8-15/h1-6,8H,7H2,(H,16,17)","GEEZPHMQJXJCBB-UHFFFAOYSA-N","?","25",,"a1/apparent","NH","basic",6.77
"15376","O=[N+]([O-])C2(=CC1(=NC=CC(=C1C=C2)NCCC[NH+](C)C))","CN(C)CCCNC1=CC=NC2=CC(=CC=C21)[N+]([O-])=O","InChI=1S/C14H18N4O2/c1-17(2)9-3-7-15-13-6-8-16-14-10-11(18(19)20)4-5-12(13)14/h4-6,8,10H,3,7,9H2,1-2H3,(H,15,16)","UOSZAJRVPAXWQM-UHFFFAOYSA-N","?","25","spectrophotometric","a1/apparent","?","basic",6.77
"17076","ClC1(=CC(=C(O)C=C1)CN2(CCOCC2))","OC1C=CC(Cl)=CC=1CN1CCOCC1","InChI=1S/C11H14ClNO2/c12-10-1-2-11(14)9(7-10)8-13-3-5-15-6-4-13/h1-2,7,14H,3-6,8H2","OWHKKIREZBPVEK-UHFFFAOYSA-N","?","25","mean from 2","a1/apparent","N-H","basic",6.78
"17078","FC1(=CC(=C(O)C=C1)CN2(CCOCC2))","OC1C=CC(F)=CC=1CN1CCOCC1","InChI=1S/C11H14FNO2/c12-10-1-2-11(14)9(7-10)8-13-3-5-15-6-4-13/h1-2,7,14H,3-6,8H2","BGESHHOKSIOPOK-UHFFFAOYSA-N","?","25","spectrophotometric","a1/apparent","OH","basic",6.78
"17026","O=C(N1(CCN(C)CC1))C2(=CC=CC=C2)","CN1CCN(CC1)C(=O)C1C=CC=CC=1","InChI=1S/C12H16N2O/c1-13-7-9-14(10-8-13)12(15)11-5-3-2-4-6-11/h2-6H,7-10H2,1H3","QRYWRVHZEBEZDQ-UHFFFAOYSA-N","?",,,"a/apparent","?","basic",6.78
"15117","N=C(C1(=C(C=C(C)C=C1)C))C2(=CC=CC=C2)","CC1C=C(C)C=CC=1C(=N)C1C=CC=CC=1","InChI=1S/C15H15N/c1-11-8-9-14(12(2)10-11)15(16)13-6-4-3-5-7-13/h3-10,16H,1-2H3","DRZBKQOLJGOKPI-UHFFFAOYSA-N","?",,"potentiometric","b/apparent","?","basic",6.79
"11990","N12(N(CCCC1)CCCC2)","C1CCCN2CCCCN21","InChI=1S/C8H16N2/c1-2-6-10-8-4-3-7-9(10)5-1/h1-8H2","RSIWLHLUUQGERP-UHFFFAOYSA-N","?","25","potentiometric","a1/apparent","?","basic",6.79
"16169","[Br]C2(=CC(C(=O)CCN1(CCOCC1))=CC=C2)","OC(=CCN1CCOCC1)C1C=C(Br)C=CC=1","InChI=1S/C13H16BrNO2/c14-12-3-1-2-11(10-12)13(16)4-5-15-6-8-17-9-7-15/h1-4,10,16H,5-9H2","JUHPTHWBKSVJGY-UHFFFAOYSA-N","?","25",,"a1/apparent","?","basic",6.8
"14349","O(C1(=CC=CC=C1))CCNN","NNCCOC1C=CC=CC=1","InChI=1S/C8H12N2O/c9-10-6-7-11-8-4-2-1-3-5-8/h1-5,10H,6-7,9H2","JVQBFZMPFQQOMQ-UHFFFAOYSA-N","?","25","potentiometric","a1/apparent","?","basic",6.8
"16594","ClC2(=CC=C(C(=O)NCCCN1(CCOCC1))C=C2)","O=C(NCCCN1CCOCC1)C1C=CC(Cl)=CC=1","InChI=1S/C14H19ClN2O2/c15-13-4-2-12(3-5-13)14(18)16-6-1-7-17-8-10-19-11-9-17/h2-5H,1,6-11H2,(H,16,18)","YYFGRAGNYHYWEZ-UHFFFAOYSA-N","?","20","potentiometric","a1/apparent","?","basic",6.81
"17645","N(NCC)(CC)C","CN(CC)NCC","InChI=1S/C5H14N2/c1-4-6-7(3)5-2/h6H,4-5H2,1-3H3","UQAUPOJEVXUTBN-UHFFFAOYSA-N","?","25","potentiometric","a1/apparent","?","basic",6.81
"15814","O=C(C(C1(=CC=CC=C1))(C2(=CC=CC=C2))CC(N3(CCOCC3))C)CC","CC=C(O)C(CC(C)N1CCOCC1)(C1C=CC=CC=1)C1C=CC=CC=1","InChI=1S/C23H29NO2/c1-3-22(25)23(20-10-6-4-7-11-20,21-12-8-5-9-13-21)18-19(2)24-14-16-26-17-15-24/h3-13,19,25H,14-18H2,1-2H3","QHLSUZPWZJKKNZ-UHFFFAOYSA-N","?, ?","20","potentiometric","a/apparent","?, ?","basic",6.8100000000000005
"12465","N=C(C1(=CC=CC=C1))C2(=CC=CC=C2)","N=C(C1C=CC=CC=1)C1C=CC=CC=1","InChI=1S/C13H11N/c14-13(11-7-3-1-4-8-11)12-9-5-2-6-10-12/h1-10,14H","SXZIXHOMFPUIRK-UHFFFAOYSA-N","?",,"potentiometric","b/apparent","?","basic",6.82
"15115","N=C(C1(=CC(=CC(=C1)C)C))C2(=CC=CC=C2)","CC1=CC(=CC(C)=C1)C(=N)C1C=CC=CC=1","InChI=1S/C15H15N/c1-11-8-12(2)10-14(9-11)15(16)13-6-4-3-5-7-13/h3-10,16H,1-2H3","FDCREYQMDVVJOD-UHFFFAOYSA-N","?",,"potentiometric","b/apparent","?","basic",6.82
"16445","O=[N+]([O-])C=2(C=1(C(=NC=CC=1NCCC[NH+](C)C)C(C)=CC=2))","CC1=CC=C(C2C1=NC=CC=2NCCCN(C)C)[N+]([O-])=O","InChI=1S/C15H20N4O2/c1-11-5-6-13(19(20)21)14-12(7-9-17-15(11)14)16-8-4-10-18(2)3/h5-7,9H,4,8,10H2,1-3H3,(H,16,17)","UQSMDQGHUADVPF-UHFFFAOYSA-N","?","25","spectrophotometric","a1/apparent","?","basic",6.84
"10313","N1(=C(N)C(N)=CC=C1)","NC1=NC=CC=C1N","InChI=1S/C5H7N3/c6-4-2-1-3-8-5(4)7/h1-3H,6H2,(H2,7,8)","ZZYXNRREDYWPLN-UHFFFAOYSA-N","?",,,"a/apparent","?","basic",6.84
"14021","N1(=NC=C(N)C=2(C1=CC=CC=2))","NC1=CN=NC2=CC=CC=C21","InChI=1S/C8H7N3/c9-7-5-10-11-8-4-2-1-3-6(7)8/h1-5H,(H2,9,11)","DODZTSARNRLOKY-UHFFFAOYSA-N","?","20","mean from 2","a/apparent","?","basic",6.84
"17375","N(NC)(CC)C","CCN(C)NC","InChI=1S/C4H12N2/c1-4-6(3)5-2/h5H,4H2,1-3H3","WYPLHOKZQLARTP-UHFFFAOYSA-N","?","25","potentiometric","a1/apparent","?","basic",6.85
"13165","N1(=C(N)C=C(C)N=C1C)","CC1N=C(N)C=C(C)N=1","InChI=1S/C6H9N3/c1-4-3-6(7)9-5(2)8-4/h3H,1-2H3,(H2,7,8,9)","BJJDXAFKCKSLTE-UHFFFAOYSA-N","?","25","potentiometric","a1/apparent","?","basic",6.85
"10201","N1(=C(C=CC=C1C)C)","CC1C=CC=C(C)N=1","InChI=1S/C7H9N/c1-6-4-3-5-7(2)8-6/h3-5H,1-2H3","OISVCGZHLKNMSJ-UHFFFAOYSA-N","?","26","mean from 9","a1/apparent","?","basic",6.85
"17153","N=1(C=3(C(C2(=CC(N)=CC=C2(C=1)))=CC=CC=3))","NC1C=C2C3=CC=CC=C3N=CC2=CC=1","InChI=1S/C13H10N2/c14-10-6-5-9-8-15-13-4-2-1-3-11(13)12(9)7-10/h1-8H,14H2","UAWUNLBCBFGBEJ-UHFFFAOYSA-N","?","20","spectrophotometric","a/apparent","?","basic",6.88
"10379","N(N(C)C)(CC)CC","CN(C)N(CC)CC","InChI=1S/C6H16N2/c1-5-8(6-2)7(3)4/h5-6H2,1-4H3","SGIKAVNBVLFQSG-UHFFFAOYSA-N","?","25","potentiometric","a1/apparent","?","basic",6.88
"12722","N1(N(C2(CCC1C2))C)(C)","CN1C2CC(CC2)N1C","InChI=1S/C7H14N2/c1-8-6-3-4-7(5-6)9(8)2/h6-7H,3-5H2,1-2H3","VAUNORIQTFNCKC-UHFFFAOYSA-N","?","25","potentiometric","a1/apparent","?","basic",6.89
"16386","O=[N+]([O-])C=3(C2(=C(NCCCC[NH+](C)C)C=1(C(=CC=CC=1)N=C2C=CC=3)))","CN(C)CCCCNC1=C2C(=CC=CC2=NC2=CC=CC=C21)[N+]([O-])=O","InChI=1S/C19H22N4O2/c1-22(2)13-6-5-12-20-19-14-8-3-4-9-15(14)21-16-10-7-11-17(18(16)19)23(24)25/h3-4,7-11H,5-6,12-13H2,1-2H3,(H,20,21)","GQVGLJVXOMJDPG-UHFFFAOYSA-N","?","25","spectrophotometric","a1/apparent","?","basic",6.9
"16505","N25(C4(C=1(N(C=3(C=CC=CC=3(C=1CC2)))CCC4(CCC5)CC)))","CCC12CCN3C4C1N(CCC=4C1C=CC=CC3=1)CCC2","InChI=1S/C19H24N2/c1-2-19-9-5-11-20-12-8-15-14-6-3-4-7-16(14)21(13-10-19)17(15)18(19)20/h3-4,6-7,18H,2,5,8-13H2,1H3","VYXFLLCQSGSEMS-UHFFFAOYSA-N","?",,,"a/apparent","?","basic",6.9
"15886","O3(CCN(C(CC(C1(=CC=CC=C1))C2(=CC=CC=C2))C)CC3)","CC(CC(C1=CC=CC=C1)C1=CC=CC=C1)N1CCOCC1","InChI=1S/C20H25NO/c1-17(21-12-14-22-15-13-21)16-20(18-8-4-2-5-9-18)19-10-6-3-7-11-19/h2-11,17,20H,12-16H2,1H3","VWWFWWPIVDCWBX-UHFFFAOYSA-N","?","25","potentiometric","a/apparent","?","basic",6.9
"13378","O2(C(CN(CC1(OC1))CCCC)C2)","CCCCN(CC1CO1)CC1CO1","InChI=1S/C10H19NO2/c1-2-3-4-11(5-9-7-12-9)6-10-8-13-10/h9-10H,2-8H2,1H3","LJDKIFXJERTLMR-UHFFFAOYSA-N","?","20","potentiometric","b1/apparent","NH%+&","basic",6.91
"15379","O=[N+]([O-])C=2(C1(=NC=CC(=C1C=CC=2)NCCC[NH+](C)C))","CN(C)CCCNC1C=CN=C2C(=CC=CC=12)[N+]([O-])=O","InChI=1S/C14H18N4O2/c1-17(2)10-4-8-15-12-7-9-16-14-11(12)5-3-6-13(14)18(19)20/h3,5-7,9H,4,8,10H2,1-2H3,(H,15,16)","CNVYMNPNBCYLNY-UHFFFAOYSA-N","?","25","spectrophotometric","a1/apparent","?","basic",6.91
"12248","S(=O)(=O)([O-])CC(O)CN1(CCOCC1)","OC(CN1CCOCC1)CS(O)(=O)=O","InChI=1S/C7H15NO5S/c9-7(6-14(10,11)12)5-8-1-3-13-4-2-8/h7,9H,1-6H2,(H,10,11,12)","NUFBIAUZAMHTSP-UHFFFAOYSA-N","?","20","mean from 2","a1/thermodynamic","SO3H","basic",6.91
"17081","OC2(=CC(C(=N)C1(=CC=CC=C1))=CC=C2)","N=C(C1C=C(O)C=CC=1)C1C=CC=CC=1","InChI=1S/C13H11NO/c14-13(10-5-2-1-3-6-10)11-7-4-8-12(15)9-11/h1-9,14-15H","MTBSWWFUPDLQGN-UHFFFAOYSA-N","?",,"potentiometric","b/apparent","?","basic",6.92
"15810","OC(C1(=CC=C(N(C)C)C=C1))(C2(=CC=C(N(C)C)C=C2))C3(=CC=CC=C3)","CN(C)C1C=CC(=CC=1)C(O)(C1C=CC=CC=1)C1C=CC(=CC=1)N(C)C","InChI=1S/C23H26N2O/c1-24(2)21-14-10-19(11-15-21)23(26,18-8-6-5-7-9-18)20-12-16-22(17-13-20)25(3)4/h5-17,26H,1-4H3","LXHOGENDFZKPSF-UHFFFAOYSA-N","?","24","mean from 2","a/apparent","?","basic",6.93
"14642","N#CCCN(C(CC1(=CC=CC=C1))C)C","CC(CC1C=CC=CC=1)N(C)CCC#N","InChI=1S/C13H18N2/c1-12(15(2)10-6-9-14)11-13-7-4-3-5-8-13/h3-5,7-8,12H,6,10-11H2,1-2H3","HDYWFIXZUZCSEI-UHFFFAOYSA-N","?","25","potentiometric","a/apparent","?","basic",6.95
"17802","N1(=C(N)C=CC=C1)","NC1C=CC=CN=1","InChI=1S/C5H6N2/c6-5-3-1-2-4-7-5/h1-4H,(H2,6,7)","ICSNLGPSRYBMBD-UHFFFAOYSA-N","?","23","mean from 7","a1/apparent","NH(1+)","basic",6.95
"13231","O=C(NOCCC(N)C(=O)OC)N","COC(O)C(=N)CCONC(N)=O","InChI=1S/C6H13N3O4/c1-12-5(10)4(7)2-3-13-9-6(8)11/h5,7,10H,2-3H2,1H3,(H3,8,9,11)","CBIHEBWTHPZASV-UHFFFAOYSA-N","?","30","potentiometric","b1/apparent","?","basic",6.95
"12916","[S-]C1(=[N+](C([S-])=CC=N1)C)","C[N+]1C(S)=NC=CC=1S","InChI=1S/C5H6N2S2/c1-7-4(8)2-3-6-5(7)9/h2-3H,1H3,(H,6,8,9)/p+1","RLVYQONXBDCEEU-UHFFFAOYSA-O","?","20","potentiometric","a/apparent","?","basic",6.96
"14331","O=C(OCCC=1(N=CNC=1))C","C=C(O)OCCC1=CNC=N1","InChI=1S/C7H10N2O2/c1-6(10)11-3-2-7-4-8-5-9-7/h4-5,10H,1-3H2,(H,8,9)","YWUBCLPMPQQIEA-UHFFFAOYSA-N","?","26","potentiometric","a/apparent","?","basic",6.97
"16406","O=C(C(C1(=CC=CC=C1))(C2(=CC=CC=C2))CCN3(CCOCC3))CC","CC=C(O)C(CCN1CCOCC1)(C1C=CC=CC=1)C1C=CC=CC=1","InChI=1S/C22H27NO2/c1-2-21(24)22(19-9-5-3-6-10-19,20-11-7-4-8-12-20)13-14-23-15-17-25-18-16-23/h2-12,24H,13-18H2,1H3","QXOCDEXNLNACQN-UHFFFAOYSA-N","?","20","mean from 2","a/apparent","?","basic",6.98
"12739","ClC1(N2(CCC(C1)CC2))","ClC1CC2CCN1CC2","InChI=1S/C7H12ClN/c8-7-5-6-1-3-9(7)4-2-6/h6-7H,1-5H2","BZYQYFBFBXSMHK-UHFFFAOYSA-N","?","25",,"a1/apparent","?","basic",6.98
"15377","O=[N+]([O-])C2(=CC=1(C(=NC=CC=1NCCC[NH+](C)C)C=C2))","CN(C)CCCNC1=CC=NC2=CC=C(C=C12)[N+]([O-])=O","InChI=1S/C14H18N4O2/c1-17(2)9-3-7-15-14-6-8-16-13-5-4-11(18(19)20)10-12(13)14/h4-6,8,10H,3,7,9H2,1-2H3,(H,15,16)","YRCLBSXRUSAIST-UHFFFAOYSA-N","?","25","spectrophotometric","a1/apparent","?","basic",6.99
"15405","SC(C(N1(C(=NC=C1)CC2(=CC=CC=C2)))C(=O)[O-])(C)C","CC(C)(S)C(=C(O)O)N1C=CN=C1CC1C=CC=CC=1","InChI=1S/C15H18N2O2S/c1-15(2,20)13(14(18)19)17-9-8-16-12(17)10-11-6-4-3-5-7-11/h3-9,18-20H,10H2,1-2H3","PHVQPHIFXBGADO-UHFFFAOYSA-N","?, ?",,"potentiometric","a2/apparent","?, ?","basic",6.99
"13650","O=C(OC)C(N)CC1(=CC=CC=C1)","COC(O)C(=N)CC1C=CC=CC=1","InChI=1S/C10H13NO2/c1-13-10(12)9(11)7-8-5-3-2-4-6-8/h2-6,10-12H,7H2,1H3","RTWLPLNTEKRYNY-UHFFFAOYSA-N","?","25","potentiometric","a/thermodynamic","?","basic",7.0
"15010","O(C=1(C=3(C(N=C2(C=1C=CC=C2))=CC=CC=3)))C","COC1C2=CC=CC=C2N=C2C=CC=CC2=1","InChI=1S/C14H11NO/c1-16-14-10-6-2-4-8-12(10)15-13-9-5-3-7-11(13)14/h2-9H,1H3","ZHBWKWDAMIJZPW-UHFFFAOYSA-N","?","20","potentiometric","a/apparent","NH%+&","basic",7.0
"17052","N(=C1(C(C=2(C=CC=CC=2(C1(C)C)))(C)C))C","CN=C1C(C)(C)C2C=CC=CC=2C1(C)C","InChI=1S/C14H19N/c1-13(2)10-8-6-7-9-11(10)14(3,4)12(13)15-5/h6-9H,1-5H3","ZSVHESCZOFKWOB-UHFFFAOYSA-N","?","20","potentiometric","a1/thermodynamic","NH(+)","basic",7.0
"16260","O=C([O-])CCCCCCCC1(=NC(=CC=C1)C)","CC1C=CC=C(CCCCCCC=C(O)O)N=1","InChI=1S/C14H21NO2/c1-12-8-7-10-13(15-12)9-5-3-2-4-6-11-14(16)17/h7-8,10-11,16-17H,2-6,9H2,1H3","PXAYUJFOIUUUHA-UHFFFAOYSA-N","?",,"potentiometric","a2/apparent","?","basic",7.0
"15547","[O-]C1(=[N+]2(C(=CC=C1)C3(CN(CCC=C)CC(C2)C3)))","C=CCCN1CC2CC(C1)C1C=CC=C(O)[N+]=1C2","InChI=1S/C15H20N2O/c1-2-3-7-16-9-12-8-13(11-16)14-5-4-6-15(18)17(14)10-12/h2,4-6,12-13H,1,3,7-11H2/p+1","ZVTFRRVBMAUIQW-UHFFFAOYSA-O","?",,"potentiometric","a/apparent","?","basic",7.0
"16535","S(C2(=C(C1(=NC(C)=C(N1)C))C=CC=C2))CC3(=CC=CC=C3)","CC1N=C(NC=1C)C1C=CC=CC=1SCC1C=CC=CC=1","InChI=1S/C18H18N2S/c1-13-14(2)20-18(19-13)16-10-6-7-11-17(16)21-12-15-8-4-3-5-9-15/h3-11H,12H2,1-2H3,(H,19,20)","NPXDCAQATGZREU-UHFFFAOYSA-N","?","25","potentiometric","a1/apparent","?","basic",7.0
"15482","O=C1(N=C(N)C=CN1C3(OC(C(OC2(OC(C(N(C)C)C(C2O)O)C))CC3)C))","CN(C)C1C(O)C(O)C(OC1C)OC1CCC(OC1C)N1C=CC(N)=NC1=O","InChI=1S/C18H30N4O6/c1-9-11(5-6-13(26-9)22-8-7-12(19)20-18(22)25)28-17-16(24)15(23)14(21(3)4)10(2)27-17/h7-11,13-17,23-24H,5-6H2,1-4H3,(H2,19,20,25)","XWEBNXCXASNJFB-UHFFFAOYSA-N","?",,"potentiometric","a2/apparent","?","basic",7.0
"10381","N(N)(CCC)CCC","CCCN(N)CCC","InChI=1S/C6H16N2/c1-3-5-8(7)6-4-2/h3-7H2,1-2H3","ZHHHDUSWMATTFE-UHFFFAOYSA-N","?","25","potentiometric","b1/apparent","?","basic",7.0
"11548","O=C([O-])C=1(N(C=C(C=1)N)C)","CN1C=C(N)C=C1C(O)=O","InChI=1S/C6H8N2O2/c1-8-3-4(7)2-5(8)6(9)10/h2-3H,7H2,1H3,(H,9,10)","MUEOQEUSJMFYHV-UHFFFAOYSA-N","?",,"potentiometric","a2/apparent","?","basic",7.0
"11883","ClCCN(C(C)C)CCCl","CC(C)N(CCCl)CCCl","InChI=1S/C7H15Cl2N/c1-7(2)10(5-3-8)6-4-9/h7H,3-6H2,1-2H3","WAEDMQMDOHQPFL-UHFFFAOYSA-N","?","15",,"a/thermodynamic","?","basic",7.0
"17638","N#CCCN(C)C","CN(C)CCC#N","InChI=1S/C5H10N2/c1-7(2)5-3-4-6/h3,5H2,1-2H3","MTPJEFOSTIKRSS-UHFFFAOYSA-N","?","28","mean from 2","a1/apparent","?","basic",7.01
"14602","O=C(OCCN(CC=C)CC=C)C(=C)C","CC(=C)C(=O)OCCN(CC=C)CC=C","InChI=1S/C12H19NO2/c1-5-7-13(8-6-2)9-10-15-12(14)11(3)4/h5-6H,1-3,7-10H2,4H3","RMUFSHQPVKCSQY-UHFFFAOYSA-N","?","25","mean from 3","a1/thermodynamic","?","basic",7.02
"11002","[S-]C1(=NC=NC=2(C1=NC=C(C)N=2))","CC1=CN=C2C(S)=NC=NC2=N1","InChI=1S/C7H6N4S/c1-4-2-8-5-6(11-4)9-3-10-7(5)12/h2-3H,1H3,(H,9,10,11,12)","FDNHUCFLWBYMRG-UHFFFAOYSA-N","?","20","potentiometric","a/apparent","?","basic",7.02
"16363","OC4(C(C)(C)C)(CC2(N(CC(C1(=CC=CC=C1))C3(=C2C=CC=C3))CC4))","CC(C)(C)C1(O)CC2C3C=CC=CC=3C(CN2CC1)C1C=CC=CC=1","InChI=1S/C23H29NO/c1-22(2,3)23(25)13-14-24-16-20(17-9-5-4-6-10-17)18-11-7-8-12-19(18)21(24)15-23/h4-12,20-21,25H,13-16H2,1-3H3","UXKLVVLXBLXQBO-UHFFFAOYSA-N","?","25","potentiometric","a1/apparent","?","basic",7.03
"12951","O(CC1(=NC(C)=CN1))C","CC1=CNC(COC)=N1","InChI=1S/C6H10N2O/c1-5-3-7-6(8-5)4-9-2/h3H,4H2,1-2H3,(H,7,8)","OVZPHMMOODVNTA-UHFFFAOYSA-N","?","25","potentiometric","a1/apparent","?","basic",7.03
"11054","N1(=CC(=CC=C1)C2(N(CC=C2)C))","CN1CC=CC1C1C=NC=CC=1","InChI=1S/C10H12N2/c1-12-7-3-5-10(12)9-4-2-6-11-8-9/h2-6,8,10H,7H2,1H3","DGSQJGQNPIUNTK-UHFFFAOYSA-N","?","24",,"b/apparent","?","basic",7.04
"11591","OCC1(=NC=CN1CCC)","CCCN1C=CN=C1CO","InChI=1S/C7H12N2O/c1-2-4-9-5-3-8-7(9)6-10/h3,5,10H,2,4,6H2,1H3","GMYMEKBDZLQAAN-UHFFFAOYSA-N","?","25","potentiometric","a1/apparent","?","basic",7.04
"15809","O=C([O-])C1(=C2(C=CC=C1COCCOCC3(=CN=C(COCCOC2)N3)))","OC(=O)C1C2COCCOCC3NC(COCCOCC=1C=CC=2)=CN=3","InChI=1S/C18H22N2O6/c21-18(22)17-13-2-1-3-14(17)10-24-5-7-26-12-16-19-8-15(20-16)11-25-6-4-23-9-13/h1-3,8H,4-7,9-12H2,(H,19,20)(H,21,22)","REMPLTDAWPLPSU-UHFFFAOYSA-N","?","25","potentiometric","a1/apparent","?","basic",7.05
"17428","N(CC#C)(C)C","CN(C)CC#C","InChI=1S/C5H9N/c1-4-5-6(2)3/h1H,5H2,2-3H3","ILBIXZPOMJFOJP-UHFFFAOYSA-N","?",,"potentiometric","a/apparent","?","basic",7.05
"13121","O1(CCN(CC=C)CC1)","C=CCN1CCOCC1","InChI=1S/C7H13NO/c1-2-3-8-4-6-9-7-5-8/h2H,1,3-7H2","SUSANAYXICMXBL-UHFFFAOYSA-N","?","25","potentiometric","a/apparent","?","basic",7.05
"11854","N(N(CCC)C)(CCC)C","CN(CCC)N(C)CCC","InChI=1S/C8H20N2/c1-5-7-9(3)10(4)8-6-2/h5-8H2,1-4H3","IZJJWKLBXLDHFY-UHFFFAOYSA-N","?","25","potentiometric","a1/apparent","?","basic",7.05
"15795","O=[N+]([O-])C=2(C=1(C(=NC=CC=1NCCCO)C=CC=2))","[O-][N+](=O)C1=CC=CC2=NC=CC(NCCCO)=C21","InChI=1S/C12H13N3O3/c16-8-2-6-13-10-5-7-14-9-3-1-4-11(12(9)10)15(17)18/h1,3-5,7,16H,2,6,8H2,(H,13,14)","SDKLIPKUBQAFDK-UHFFFAOYSA-N","?","25","spectrophotometric","a1/apparent","?","basic",7.06
"13716","O=C(NN)C(N)CC1(=CC=CC=C1)","NNC(O)C(=N)CC1C=CC=CC=1","InChI=1S/C9H13N3O/c10-8(9(13)12-11)6-7-4-2-1-3-5-7/h1-5,9-10,12-13H,6,11H2","JUUORJJZTUWRRO-UHFFFAOYSA-N","?","25","potentiometric","a/thermodynamic","?","basic",7.06
"12188","O=C(C(CC)C)CCN1(CCOCC1)","CCC(C)C(O)=CCN1CCOCC1","InChI=1S/C11H21NO2/c1-3-10(2)11(13)4-5-12-6-8-14-9-7-12/h4,10,13H,3,5-9H2,1-2H3","NNCDUQAVGGXCNB-UHFFFAOYSA-N","?","30","potentiometric","a1/apparent","?","basic",7.07
"15281","O2(C3(NCC1(=CC=CC=C1))(C7(C5(CC6(C7(C2C4(C6(C5(C34)))))))))","C(NC12OC3C4C1C1CC4C4C3C2C14)C1C=CC=CC=1","InChI=1S/C18H19NO/c1-2-4-8(5-3-1)7-19-18-15-10-6-9-11-12(10)16(18)14(11)17(20-18)13(9)15/h1-5,9-17,19H,6-7H2","AVESFRBKERIICX-UHFFFAOYSA-N","?","25",,"a2/apparent","?","basic",7.07
"11163","O2(C(CN(C(C)C)CC1(OC1))C2)","CC(C)N(CC1CO1)CC1CO1","InChI=1S/C9H17NO2/c1-7(2)10(3-8-5-11-8)4-9-6-12-9/h7-9H,3-6H2,1-2H3","DXAUPHVMJXKRRE-UHFFFAOYSA-N","?","20","potentiometric","b1/apparent","NH%+&","basic",7.07
"17000","O=C1(OCC(C1CC)CC=2(N(C=NC=2)C))","CCC1C(CC2=CN=CN2C)COC=1O","InChI=1S/C11H16N2O2/c1-3-10-8(6-15-11(10)14)4-9-5-12-7-13(9)2/h5,7-8,14H,3-4,6H2,1-2H3","OYPZPQPOLMBVTR-UHFFFAOYSA-N","?, ?","18","potentiometric","b1/apparent","?, ?","basic",7.08
"15476","OC4(=C3(C1(=C2(C(=CC=C1)CCN(C2CC3=CC=C4O)C))))","CN1CCC2=CC=CC3C4C(CC1C2=3)=CC=C(O)C=4O","InChI=1S/C17H17NO2/c1-18-8-7-10-3-2-4-12-15(10)13(18)9-11-5-6-14(19)17(20)16(11)12/h2-6,13,19-20H,7-9H2,1H3","VMWNQDUVQKEIOC-UHFFFAOYSA-N","?","19","mean from 2","b/thermodynamic","?","basic",7.08
"10378","N(NCC)(CC)CC","CCNN(CC)CC","InChI=1S/C6H16N2/c1-4-7-8(5-2)6-3/h7H,4-6H2,1-3H3","QDLFVXRWLQSBTF-UHFFFAOYSA-N","?","25","potentiometric","a1/apparent","?","basic",7.08
"11037","N2(N1(CCCCC1))(CCCCC2)","C1CCCCN1N1CCCCC1","InChI=1S/C10H20N2/c1-3-7-11(8-4-1)12-9-5-2-6-10-12/h1-10H2","QFDISQIDKZUABE-UHFFFAOYSA-N","?","25","potentiometric","a1/apparent","?","basic",7.09
"14986","O(C3(=CC1(=C(NC2(=C1C=CN=C2C))C=C3)))C","CC1=NC=CC2=C1NC1C=CC(=CC2=1)OC","InChI=1S/C13H12N2O/c1-8-13-10(5-6-14-8)11-7-9(16-2)3-4-12(11)15-13/h3-7,15H,1-2H3","XYYVPBBISSKKQB-UHFFFAOYSA-N","?","25","spectrophotometric","b1/apparent","N-7","basic",7.09
"14148","N23(C1(=C(C=CC=C1)C(C2)CC3))","C1C2CCN1C1C=CC=CC=12","InChI=1S/C10H11N/c1-2-4-10-9(3-1)8-5-6-11(10)7-8/h1-4,8H,5-7H2","UJFYPTYOEWDYGL-UHFFFAOYSA-N","?","25","potentiometric","a/apparent","NH+","basic",7.1
"15761","O=C(C1(=CC(OC)=CC=C1))CCN2(CCOCC2)","COC1=CC=CC(=C1)C(O)=CCN1CCOCC1","InChI=1S/C14H19NO3/c1-17-13-4-2-3-12(11-13)14(16)5-6-15-7-9-18-10-8-15/h2-5,11,16H,6-10H2,1H3","XKLKIPRKOQOJLZ-UHFFFAOYSA-N","?","25",,"a1/apparent","?","basic",7.1
"15933","O=[N+]([O-])C=4(C=3(C(=C2(N=C1(C(C=CC=C1)=C(C2=CC=3)N)))C=CC=4))","NC1C2=CC=C3C(=CC=CC3=C2N=C2C=CC=CC2=1)[N+]([O-])=O","InChI=1S/C17H11N3O2/c18-16-12-4-1-2-6-14(12)19-17-11-5-3-7-15(20(21)22)10(11)8-9-13(16)17/h1-9H,(H2,18,19)","ZXMOTSNAMSWTDA-UHFFFAOYSA-N","?","20",,"a/apparent","?","basic",7.1
"11747","O=C1(C(NC(C1)(C)C)(C)C)","CC1(C)NC(C)(C)C=C1O","InChI=1S/C8H15NO/c1-7(2)5-6(10)8(3,4)9-7/h5,9-10H,1-4H3","QOQFWIULEWKNGC-UHFFFAOYSA-N","?",,,"a/apparent","NH2%+&","basic",7.1
"14526","OCC1(=C(N=C(C)C=C1C)C)","CC1=CC(C)=NC(C)=C1CO","InChI=1S/C9H13NO/c1-6-4-7(2)10-8(3)9(6)5-11/h4,11H,5H2,1-3H3","XNHRGDXBBBYODI-UHFFFAOYSA-N","?",,,"a/apparent","NH+","basic",7.1
"17137","[S-]C2(=[NH+]C([O-])=C(C1(=CCCCC1))C(=N2)N)","NC1N=C(S)N=C(O)C=1C1CCCCC=1","InChI=1S/C10H13N3OS/c11-8-7(6-4-2-1-3-5-6)9(14)13-10(15)12-8/h4H,1-3,5H2,(H4,11,12,13,14,15)","SOPLCIIQDJJIBM-UHFFFAOYSA-N","?","28","spectrophotometric","a/apparent","?","basic",7.11
"12272","O=C([O-])C(NC(=O)C)CC=1(N=CNC=1)","C/C(/O)=N\C(CC1=CNC=N1)=C(O)O","InChI=1S/C8H11N3O3/c1-5(12)11-7(8(13)14)2-6-3-9-4-10-6/h3-4,13-14H,2H2,1H3,(H,9,10)(H,11,12)","XDRNOONALRPQTA-UHFFFAOYSA-N","?","25","potentiometric","a2/apparent","NH(1+)","basic",7.11
"16933","O2(C1(=C(OC)C=CC5(=C1C34(C2C(O)C=CC3C(N(C)CC4)C5O))))","COC1C=CC2C(O)C3C4C=CC(O)C5OC=1C=2C45CCN3C","InChI=1S/C18H21NO4/c1-19-8-7-18-10-4-5-11(20)17(18)23-16-12(22-2)6-3-9(13(16)18)15(21)14(10)19/h3-6,10-11,14-15,17,20-21H,7-8H2,1-2H3","ZDGQZOCAKDGPRA-UHFFFAOYSA-N","?",,"potentiometric","a/apparent","?","basic",7.12