"Molecule name","OriginalSmiles","Canonical_QSARr","InChI_Code_QSARr","InChI Key_QSARr","Salt_Solvent (Concatenate)","temp","method","type","group","basicOrAcidic","pKa"
"15813","O=C(C(C1(=CC=CC=C1))(C2(=CC=CC=C2))C(CN3(CCOCC3))C)CC","CC=C(O)C(C(C)CN1CCOCC1)(C1C=CC=CC=1)C1C=CC=CC=1","InChI=1S/C23H29NO2/c1-3-22(25)23(20-10-6-4-7-11-20,21-12-8-5-9-13-21)19(2)18-24-14-16-26-17-15-24/h3-13,19,25H,14-18H2,1-2H3","QEJCRAWCVRSRRB-UHFFFAOYSA-N","?","20","potentiometric","a/apparent","?","basic",7.12
"14361","O=C(N=C1(N(C=CC=C1)C))C","CN1C=CC=CC1=NC(=C)O","InChI=1S/C8H10N2O/c1-7(11)9-8-5-3-4-6-10(8)2/h3-6,11H,1H2,2H3","IIFDMXBDNWYRET-UHFFFAOYSA-N","?",,"potentiometric","a/apparent","?","basic",7.12
"11514","N1(=CN(CCCCC)C=C1)","CCCCCN1C=NC=C1","InChI=1S/C8H14N2/c1-2-3-4-6-10-7-5-9-8-10/h5,7-8H,2-4,6H2,1H3","UPYVYJSWGZMBOU-UHFFFAOYSA-N","?","25","potentiometric","a1/apparent","N(1+)-H","basic",7.12
"15898","O2(C1(=C(O)C=CC5(=C1C34(C2C(O)C=CC3C(N(C)CC4)C5O))))","CN1CCC23C4OC5C2=C(C=CC=5O)C(O)C1C3C=CC4O","InChI=1S/C17H19NO4/c1-18-7-6-17-9-3-5-11(20)16(17)22-15-10(19)4-2-8(12(15)17)14(21)13(9)18/h2-5,9,11,13-14,16,19-21H,6-7H2,1H3","ISVKWTNAIRJURI-UHFFFAOYSA-N","?",,"potentiometric","a1/apparent","?","basic",7.13
"14960","N1(=C(N)C=C(C)C=2(C1=CC=C3(C=2C=CC=C3)))","CC1=CC(N)=NC2=CC=C3C=CC=CC3=C21","InChI=1S/C14H12N2/c1-9-8-13(15)16-12-7-6-10-4-2-3-5-11(10)14(9)12/h2-8H,1H3,(H2,15,16)","MJLVHTAIORJJEH-UHFFFAOYSA-N","?","20","spectrophotometric","a/apparent","?","basic",7.14
"16418","O4(CCN(C=1(C=3(C(N=C2(C=1CCC2))=CC=C(C=3)OC)))CC4)","COC1=CC=C2N=C3CCCC3=C(C2=C1)N1CCOCC1","InChI=1S/C17H20N2O2/c1-20-12-5-6-16-14(11-12)17(19-7-9-21-10-8-19)13-3-2-4-15(13)18-16/h5-6,11H,2-4,7-10H2,1H3","HVORHDWIMWSIAE-UHFFFAOYSA-N","?","25","spectrophotometric","a1/thermodynamic","?","basic",7.14
"17644","N(NC)(CC)CC","CNN(CC)CC","InChI=1S/C5H14N2/c1-4-7(5-2)6-3/h6H,4-5H2,1-3H3","MAYFAHPJVMXMOU-UHFFFAOYSA-N","?","25","potentiometric","a1/apparent","?","basic",7.14
"14319","S(C(=N)NC1(=CC=CC=C1))C","CSC(=N)NC1C=CC=CC=1","InChI=1S/C8H10N2S/c1-11-8(9)10-7-5-3-2-4-6-7/h2-6H,1H3,(H2,9,10)","NROPRCUPBJFONT-UHFFFAOYSA-N","?","20","potentiometric","a/thermodynamic","?","basic",7.14
"11992","N1(N(C2(CCC1CC2))C)(C)","CN1C2CCC(CC2)N1C","InChI=1S/C8H16N2/c1-9-7-3-5-8(6-4-7)10(9)2/h7-8H,3-6H2,1-2H3","HIWDJUZJJXARGW-UHFFFAOYSA-N","?","25","potentiometric","a1/apparent","?","basic",7.14
"14408","N(C1(=CC=CC=C1))C(C)(C)C","CC(C)(C)NC1C=CC=CC=1","InChI=1S/C10H15N/c1-10(2,3)11-9-7-5-4-6-8-9/h4-8,11H,1-3H3","ABRWESLGGMHKEA-UHFFFAOYSA-N","?","22","mean from 6","a/thermodynamic","?","basic",7.15
"17293","N1(=CN(C)C=C1)","CN1C=NC=C1","InChI=1S/C4H6N2/c1-6-3-2-5-4-6/h2-4H,1H3","MCTWTZJPVLRJOU-UHFFFAOYSA-N","?","25","mean from 9","a1/apparent","?","basic",7.15
"17472","O(C(=N)C)CC","CCOC(C)=N","InChI=1S/C4H9NO/c1-3-6-4(2)5/h5H,3H2,1-2H3","JMIAPORGEDIDLT-UHFFFAOYSA-N","?","25","potentiometric","a1/apparent","?","basic",7.15
"11970","[S-]C2(=NC=1(NC=NC=1C=N2))","SC1N=C2NC=NC2=CN=1","InChI=1S/C5H4N4S/c10-5-6-1-3-4(9-5)8-2-7-3/h1-2H,(H2,6,7,8,9,10)","HDBQZGJWHMCXIL-UHFFFAOYSA-N","?","20","potentiometric","a2/apparent","?","basic",7.15
"11302","N(N(CCCC)C)(CCCC)C","CN(CCCC)N(C)CCCC","InChI=1S/C10H24N2/c1-5-7-9-11(3)12(4)10-8-6-2/h5-10H2,1-4H3","HUUBGMAZZGQSLS-UHFFFAOYSA-N","?","25","potentiometric","a1/apparent","?","basic",7.16
"17243","N(N)(C)C","CN(C)N","InChI=1S/C2H8N2/c1-4(2)3/h3H2,1-2H3","RHUYHJGZWVXEHW-UHFFFAOYSA-N","?","27","mean from 2","b2/apparent","?","basic",7.16
"11991","N2(N1(CCCC1))(CCCC2)","C1CCCN1N1CCCC1","InChI=1S/C8H16N2/c1-2-6-9(5-1)10-7-3-4-8-10/h1-8H2","QGRRJTQMMXJUNP-UHFFFAOYSA-N","?","25","potentiometric","a1/apparent","?","basic",7.16
"15812","O=C(C(C1(=CC=CC=C1))(C2(=CC=CC=C2))CCN3(CCOCC3))CCC","CCC=C(O)C(CCN1CCOCC1)(C1C=CC=CC=1)C1C=CC=CC=1","InChI=1S/C23H29NO2/c1-2-9-22(25)23(20-10-5-3-6-11-20,21-12-7-4-8-13-21)14-15-24-16-18-26-19-17-24/h3-13,25H,2,14-19H2,1H3","OMWZJJMAOFHVBV-UHFFFAOYSA-N","?","20","potentiometric","a/apparent","?","basic",7.17
"11864","O=C(O)C(O)C(N)C(=O)N","NC(=O)C(N)C(O)=C(O)O","InChI=1S/C4H8N2O4/c5-1(3(6)8)2(7)4(9)10/h1,7,9-10H,5H2,(H2,6,8)","ZYRWMJROQVDQLG-UHFFFAOYSA-N","?","25","potentiometric","apparent","NH3%+&","basic",7.17
"13637","S(=O)(=O)([O-])CCCN1(CCOCC1)","OS(=O)(=O)CCCN1CCOCC1","InChI=1S/C7H15NO4S/c9-13(10,11)7-1-2-8-3-5-12-6-4-8/h1-7H2,(H,9,10,11)","DVLFYONBTKHTER-UHFFFAOYSA-N","?","22","mean from 3","a2/apparent","?","basic",7.17
"13808","N2(=CC=1(C(=CC(N)=CC=1)C=C2))","NC1C=C2C=CN=CC2=CC=1","InChI=1S/C9H8N2/c10-9-2-1-8-6-11-4-3-7(8)5-9/h1-6H,10H2","NGFCTYXFMDWFRQ-UHFFFAOYSA-N","?","20","potentiometric","a/apparent","?","basic",7.17
"10761","N(C1(=CC=C(C)C=C1))(CC)CC","CC1C=CC(=CC=1)N(CC)CC","InChI=1S/C11H17N/c1-4-12(5-2)11-8-6-10(3)7-9-11/h6-9H,4-5H2,1-3H3","HKJNHYJTVPWVGV-UHFFFAOYSA-N","?","24","mean from 2","a/thermodynamic","?","basic",7.18
"10762","N(C1(=C(C=CC=C1)C))(CC)CC","CC1C=CC=CC=1N(CC)CC","InChI=1S/C11H17N/c1-4-12(5-2)11-9-7-6-8-10(11)3/h6-9H,4-5H2,1-3H3","YQYUUNRAPYPAPC-UHFFFAOYSA-N","?","25","potentiometric","a/apparent","?","basic",7.18
"15471","O4(CCN(C=1(C=3(C(N=C2(C=1CCC2))=CC=C(C=3)C)))CC4)","CC1C=C2C(=C3CCCC3=NC2=CC=1)N1CCOCC1","InChI=1S/C17H20N2O/c1-12-5-6-16-14(11-12)17(19-7-9-20-10-8-19)13-3-2-4-15(13)18-16/h5-6,11H,2-4,7-10H2,1H3","UWYYFQHBSQBZJF-UHFFFAOYSA-N","?","25","spectrophotometric","a1/thermodynamic","?","basic",7.18
"13064","O1(CCN(CCO)CC1)","OCCN1CCOCC1","InChI=1S/C6H13NO2/c8-4-1-7-2-5-9-6-3-7/h8H,1-6H2","KKFDCBRMNNSAAW-UHFFFAOYSA-N","?","25",,"a1/apparent","H(1+)","basic",7.18
"11551","O=C([O-])C1(=NC=CC=C1N)","NC1C=CC=NC=1C(O)=O","InChI=1S/C6H6N2O2/c7-4-2-1-3-8-5(4)6(9)10/h1-3H,7H2,(H,9,10)","BOOMHTFCWOJWFO-UHFFFAOYSA-N","?","25","potentiometric","a/apparent","?","basic",7.18
"15598","SC(C(N1(C(=NC=C1)CC=CCC))C(=O)[O-])(C)C","CCC=CCC1=NC=CN1C(=C(O)O)C(C)(C)S","InChI=1S/C13H20N2O2S/c1-4-5-6-7-10-14-8-9-15(10)11(12(16)17)13(2,3)18/h5-6,8-9,16-18H,4,7H2,1-3H3","JIHORWSUUNJYAM-UHFFFAOYSA-N","?","25","potentiometric","a2/apparent","?","basic",7.2
"16755","O=[N+]([O-])C=3(C2(=C(NC)C=1(C(=CC=CC=1)N=C2C=CC=3)))","CNC1=C2C(=CC=CC2=NC2=CC=CC=C21)[N+]([O-])=O","InChI=1S/C14H11N3O2/c1-15-14-9-5-2-3-6-10(9)16-11-7-4-8-12(13(11)14)17(18)19/h2-8H,1H3,(H,15,16)","CGAGOAVPWUULJQ-UHFFFAOYSA-N","?","25","spectrophotometric","a1/apparent","?","basic",7.2
"16562","O=[N+]([O-])C=3(C2(=C(NCCO)C=1(C(=CC=CC=1)N=C2C=CC=3)))","[O-][N+](=O)C1=CC=CC2=NC3=CC=CC=C3C(NCCO)=C21","InChI=1S/C15H13N3O3/c19-9-8-16-15-10-4-1-2-5-11(10)17-12-6-3-7-13(14(12)15)18(20)21/h1-7,19H,8-9H2,(H,16,17)","HARZMLUWPOFDHZ-UHFFFAOYSA-N","?","25","spectrophotometric","a1/apparent","?","basic",7.2
"16558","O=[N+]([O-])C=3(C2(=C(NCCC)C=1(C(=CC=CC=1)N=C2C=CC=3)))","CCCNC1=C2C(=CC=CC2=NC2=CC=CC=C21)[N+]([O-])=O","InChI=1S/C16H15N3O2/c1-2-10-17-16-11-6-3-4-7-12(11)18-13-8-5-9-14(15(13)16)19(20)21/h3-9H,2,10H2,1H3,(H,17,18)","KOSPQEBOSIYFKE-UHFFFAOYSA-N","?","25","spectrophotometric","a1/apparent","?","basic",7.2
"16672","OC(CN(CCO)CCCCCCCCCC)CC","CCCCCCCCCCN(CCO)CC(O)CC","InChI=1S/C16H35NO2/c1-3-5-6-7-8-9-10-11-12-17(13-14-18)15-16(19)4-2/h16,18-19H,3-15H2,1-2H3","OIQJXFKEZPJGIK-UHFFFAOYSA-N","?","20","potentiometric","a1/apparent","-NH3%+&","basic",7.2
"16812","ClC3(=CC2(=NC=1(C(=CC(OC)=CC=1)C(=C2C=C3)NC(CC[NH+](CC)CC)C)))","COC1=CC2=C(NC(C)CCN(CC)CC)C3=CC=C(Cl)C=C3N=C2C=C1","InChI=1S/C22H28ClN3O/c1-5-26(6-2)12-11-15(3)24-22-18-9-7-16(23)13-21(18)25-20-10-8-17(27-4)14-19(20)22/h7-10,13-15H,5-6,11-12H2,1-4H3,(H,24,25)","ODETWYHKMCROAA-UHFFFAOYSA-N","?",,"potentiometric","b2/apparent","?","basic",7.2
"14305","N(N)CCCC1(=CC=CC=C1)","NNCCCC1C=CC=CC=1","InChI=1S/C9H14N2/c10-11-8-4-7-9-5-2-1-3-6-9/h1-3,5-6,11H,4,7-8,10H2","DJQQFWAGPAXTHH-UHFFFAOYSA-N","?","25","potentiometric","b1/apparent","?","basic",7.2
"14307","N1(=CN(CCCCCC)C=C1)","CCCCCCN1C=NC=C1","InChI=1S/C9H16N2/c1-2-3-4-5-7-11-8-6-10-9-11/h6,8-9H,2-5,7H2,1H3","KGWVFQAPOGAVRF-UHFFFAOYSA-N","?","25","potentiometric","a1/apparent","N(1+)-H","basic",7.2
"17051","N=C(C1(=C(C=CC=C1)C))C2(=CC=CC=C2)","CC1C=CC=CC=1C(=N)C1C=CC=CC=1","InChI=1S/C14H13N/c1-11-7-5-6-10-13(11)14(15)12-8-3-2-4-9-12/h2-10,15H,1H3","CODBILKKNFIKDG-UHFFFAOYSA-N","?",,"potentiometric","b/apparent","?","basic",7.21
"16585","N(C1(=CC=CC=C1))=C(C=C(NC2(=CC=CC=C2))C)C","CC(CC(C)=NC1C=CC=CC=1)=NC1C=CC=CC=1","InChI=1S/C17H18N2/c1-14(18-16-9-5-3-6-10-16)13-15(2)19-17-11-7-4-8-12-17/h3-12H,13H2,1-2H3","UTQBQIAHYJHBQI-UHFFFAOYSA-N","?","25","potentiometric","a/thermodynamic","?","basic",7.22
"10098","N1(=C(N)C=CC(=C1)C)","CC1C=CC(N)=NC=1","InChI=1S/C6H8N2/c1-5-2-3-6(7)8-4-5/h2-4H,1H3,(H2,7,8)","CMBSSVKZOPZBKW-UHFFFAOYSA-N","?","29","mean from 3","a1/apparent","?","basic",7.22
"12133","N#CCCNC(CC1(=CC=CC=C1))C","CC(CC1C=CC=CC=1)NCCC#N","InChI=1S/C12H16N2/c1-11(14-9-5-8-13)10-12-6-3-2-4-7-12/h2-4,6-7,11,14H,5,9-10H2,1H3","IQUFSXIQAFPIMR-UHFFFAOYSA-N","?","25","potentiometric","a/apparent","?","basic",7.23
"16784","O=C(NC(C(=O)NCCC)CC=1(N=CNC=1))C2(=NC(=CC=C2)CNCCN)","CCCNC(O)C(CC1=CNC=N1)=NC(=O)C1=CC=CC(CNCCN)=N1","InChI=1S/C18H27N7O2/c1-2-7-22-17(26)16(9-14-11-21-12-23-14)25-18(27)15-5-3-4-13(24-15)10-20-8-6-19/h3-5,11-12,17,20,22,26H,2,6-10,19H2,1H3,(H,21,23)","QSTUXZIMSTWFQR-UHFFFAOYSA-N","?, ?, ?","25","potentiometric","a3/apparent","-NH2-H, N(pyr)-H, N(Im)-H","basic",7.2333333333333325
"16763","O=C([O-])C(NC(=O)C([NH3+])CC(C)C)CC=1(N=CNC=1)","CC(C)CC(=N)C(O)NC(CC1=CNC=N1)=C(O)O","InChI=1S/C12H20N4O3/c1-7(2)3-9(13)11(17)16-10(12(18)19)4-8-5-14-6-15-8/h5-7,11,13,16-19H,3-4H2,1-2H3,(H,14,15)","MHVCFZCSMMLJCG-UHFFFAOYSA-N","?, ?","25","potentiometric","a2/apparent","NHCH=NH(+), NH3(+)","basic",7.235
"16836","S(=O)(=O)(C1(=C(OC)C(OC)=C(OC)C=C1))CCN2(CCCCC2)","COC1C(OC)=C(C=CC=1OC)S(=O)(=O)CCN1CCCCC1","InChI=1S/C16H25NO5S/c1-20-13-7-8-14(16(22-3)15(13)21-2)23(18,19)12-11-17-9-5-4-6-10-17/h7-8H,4-6,9-12H2,1-3H3","YWRSIBHGMIKOQM-UHFFFAOYSA-N","?","20","potentiometric","a1/thermodynamic","amino","basic",7.24
"16549","O3(CCN(CCC(C1(=CC=CC=C1))C2(=CC=CC=C2))CC3)","C1CN(CCC(C2C=CC=CC=2)C2C=CC=CC=2)CCO1","InChI=1S/C19H23NO/c1-3-7-17(8-4-1)19(18-9-5-2-6-10-18)11-12-20-13-15-21-16-14-20/h1-10,19H,11-16H2","HRFZBLRYMCCDPV-UHFFFAOYSA-N","?","25","potentiometric","a/apparent","?","basic",7.25
"11501","N(N)CCC1(=CC=CC=C1)","NNCCC1C=CC=CC=1","InChI=1S/C8H12N2/c9-10-7-6-8-4-2-1-3-5-8/h1-5,10H,6-7,9H2","RMUCZJUITONUFY-UHFFFAOYSA-N","?","25","potentiometric","b1/apparent","?","basic",7.25
"14972","ClC3(=CC2(=NC=1(C(=CC=C(C=1)N)C=C2C=C3)))","NC1C=C2N=C3C=C(Cl)C=CC3=CC2=CC=1","InChI=1S/C13H9ClN2/c14-10-3-1-8-5-9-2-4-11(15)7-13(9)16-12(8)6-10/h1-7H,15H2","OCESZSGMAAGZGO-UHFFFAOYSA-N","?","20","spectrophotometric","a/apparent","?","basic",7.26
"10062","N1(=C(N=CC=C1N)N)","NC1=CC=NC(N)=N1","InChI=1S/C4H6N4/c5-3-1-2-7-4(6)8-3/h1-2H,(H4,5,6,7,8)","YAAWASYJIRZXSZ-UHFFFAOYSA-N","?","20","potentiometric","a1/apparent","?","basic",7.26
"16472","O=C(NC1(=C(C=CC=C1C)C))C2(N(CCCC2)CCCC)","CCCCN1CCCCC1/C(/O)=N\C1C(C)=CC=CC=1C","InChI=1S/C18H28N2O/c1-4-5-12-20-13-7-6-11-16(20)18(21)19-17-14(2)9-8-10-15(17)3/h8-10,16H,4-7,11-13H2,1-3H3,(H,19,21)","LEBVLXFERQHONN-UHFFFAOYSA-N","?","25","potentiometric","a1/apparent","?","basic",7.27
"12743","O=C1(C2(CCN(C1)CC2))","OC1=CN2CCC1CC2","InChI=1S/C7H11NO/c9-7-5-8-3-1-6(7)2-4-8/h5-6,9H,1-4H2","JRYLYFPEARNEME-UHFFFAOYSA-N","?","27","mean from 3","a1/thermodynamic","NH(+)","basic",7.27
"16618","S1(C(=NC(=C1)C2(=CC(N=CNC)=CC=C2))N=C(N)N)","CN/C=N/C1C=C(C=CC=1)C1=CSC(N=C(N)N)=N1","InChI=1S/C12H14N6S/c1-15-7-16-9-4-2-3-8(5-9)10-6-19-12(17-10)18-11(13)14/h2-7H,1H3,(H,15,16)(H4,13,14,17,18)","MRTUBNJTWHQTJJ-UHFFFAOYSA-N","?, ?","25","potentiometric","a2/apparent","?, ?","basic",7.289999999999999
"15137","O(C2(=C(C(=N)C1(=CC=CC=C1))C=CC=C2))C","COC1C=CC=CC=1C(=N)C1C=CC=CC=1","InChI=1S/C14H13NO/c1-16-13-10-6-5-9-12(13)14(15)11-7-3-2-4-8-11/h2-10,15H,1H3","ORCSEXZHGNXJIB-UHFFFAOYSA-N","?","25","potentiometric","b/apparent","?","basic",7.29
"12264","O=[N+]([O-])C1(=CC(N=CN(C)C)=CC=C1)","CN(C)C=NC1C=C(C=CC=1)[N+]([O-])=O","InChI=1S/C9H11N3O2/c1-11(2)7-10-8-4-3-5-9(6-8)12(13)14/h3-7H,1-2H3","LQXZCPNRKDUVET-UHFFFAOYSA-N","?","25","potentiometric","a1/apparent","N=C-H","basic",7.29
"10756","N(C1(=CC=C(C)C=C1))C(C)(C)C","CC1C=CC(=CC=1)NC(C)(C)C","InChI=1S/C11H17N/c1-9-5-7-10(8-6-9)12-11(2,3)4/h5-8,12H,1-4H3","XVOOKSRPDMBTAI-UHFFFAOYSA-N","?","18","potentiometric","a/apparent","?","basic",7.3
"17211","N=1(C=3(C(C(N)=CC=1)=C2(C(N=CC=C2)=CC=3)))","NC1=CC=NC2=CC=C3N=CC=CC3=C21","InChI=1S/C12H9N3/c13-9-5-7-15-11-4-3-10-8(12(9)11)2-1-6-14-10/h1-7H,(H2,13,15)","WRKJTQULCPMYDS-UHFFFAOYSA-N","?","20","potentiometric","a/apparent","?","basic",7.3
"15586","O=[N+]([O-])C=3(C2(=C(N)C=1(C(=CC=CC=1)N=C2C=CC=3)))","NC1=C2C(=CC=CC2=NC2=CC=CC=C21)[N+]([O-])=O","InChI=1S/C13H9N3O2/c14-13-8-4-1-2-5-9(8)15-10-6-3-7-11(12(10)13)16(17)18/h1-7H,(H2,14,15)","IOQZSOCPFYNJIG-UHFFFAOYSA-N","?","25","spectrophotometric","a1/apparent","?","basic",7.3
"17522","N(N)(CC)C","CCN(C)N","InChI=1S/C3H10N2/c1-3-5(2)4/h3-4H2,1-2H3","ZFSFKYIBIOKXKI-UHFFFAOYSA-N","?","25","mean from 2","a1/apparent","?","basic",7.3
"12605","N(N(CC)C)(CC)CC","CN(CC)N(CC)CC","InChI=1S/C7H18N2/c1-5-8(4)9(6-2)7-3/h5-7H2,1-4H3","OHIFQYAIQZOAIH-UHFFFAOYSA-N","?","25","potentiometric","a1/apparent","?","basic",7.3
"14505","OCC1(=C(C(=NC(=C1)C)C)C)","CC1=C(CO)C=C(C)N=C1C","InChI=1S/C9H13NO/c1-6-4-9(5-11)7(2)8(3)10-6/h4,11H,5H2,1-3H3","GZSQYLBINRYIRI-UHFFFAOYSA-N","?",,,"a/apparent","NH+","basic",7.3
"16417","N=1(C=4(C(C=C2(C=1C=CC=3(C2=CC=CC=3)))=CC=C(C=4)N(C)C))","CN(C)C1C=C2N=C3C=CC4=CC=CC=C4C3=CC2=CC=1","InChI=1S/C19H16N2/c1-21(2)15-9-7-14-11-17-16-6-4-3-5-13(16)8-10-18(17)20-19(14)12-15/h3-12H,1-2H3","ZZZXSTQSZIFRGS-UHFFFAOYSA-N","?","20","spectrophotometric","a/apparent","?","basic",7.31
"10680","O=C(OCC)N1(CCN(C)CC1)","CN1CCN(CC1)C(=O)OCC","InChI=1S/C8H16N2O2/c1-3-12-8(11)10-6-4-9(2)5-7-10/h3-7H2,1-2H3","USYYUUDWGLOMDJ-UHFFFAOYSA-N","?",,,"a/apparent","?","basic",7.31
"11853","N(N(CC)CC)(CC)CC","CCN(CC)N(CC)CC","InChI=1S/C8H20N2/c1-5-9(6-2)10(7-3)8-4/h5-8H2,1-4H3","LFIAAOPREBAQSI-UHFFFAOYSA-N","?","25","potentiometric","a1/apparent","?","basic",7.31
"14381","O=C([O-])C(O)CC=1(N=CNC=1)","OC(O)=C(O)CC1=CNC=N1","InChI=1S/C6H8N2O3/c9-5(6(10)11)1-4-2-7-3-8-4/h2-3,9-11H,1H2,(H,7,8)","YCMZPNUKOOHINY-UHFFFAOYSA-N","?","30","potentiometric","a2/apparent","?","basic",7.32
"11814","N1(CCC(NNC)CC1)(C)","CNNC1CCN(C)CC1","InChI=1S/C7H17N3/c1-8-9-7-3-5-10(2)6-4-7/h7-9H,3-6H2,1-2H3","VIDTUIAYWHYNFF-UHFFFAOYSA-N","?, ?","20","potentiometric","a2/apparent","?, ?","basic",7.324999999999999
"11969","[Se-]C1(=NC=NC2(=C1NC=N2))","[Se-]C1=NC=NC2N=CNC=21","InChI=1S/C5H4N4Se/c10-5-3-4(7-1-6-3)8-2-9-5/h1-2H,(H2,6,7,8,9,10)/p-1","NGMMEPMKKHBFDS-UHFFFAOYSA-M","?",,"potentiometric","a/apparent","?","basic",7.33
"17654","[N+](CCN)(C)(C)C","C[N+](C)(C)CCN","InChI=1S/C5H15N2/c1-7(2,3)5-4-6/h4-6H2,1-3H3/q+1","QMRGNVUDLXOZPG-UHFFFAOYSA-N","?","25",,"a1/apparent","NH3(1+)","basic",7.34
"17378","N(N)(CCC)C","CCCN(C)N","InChI=1S/C4H12N2/c1-3-4-6(2)5/h3-5H2,1-2H3","JOFQXPUKJJQCPW-UHFFFAOYSA-N","?","25","potentiometric","b1/apparent","?","basic",7.35
"12895","N1(=CN(C(C)(C)C)C=C1)","CC(C)(C)N1C=NC=C1","InChI=1S/C7H12N2/c1-7(2,3)9-5-4-8-6-9/h4-6H,1-3H3","AMQKPABOPFXDQM-UHFFFAOYSA-N","?","25",,"a1/apparent","?","basic",7.35
"14652","O=C(NC1(=C(C=CC=C1C)C))CN(C)C","CC1C=CC=C(C)C=1/N=C(/O)\CN(C)C","InChI=1S/C12H18N2O/c1-9-6-5-7-10(2)12(9)13-11(15)8-14(3)4/h5-7H,8H2,1-4H3,(H,13,15)","OAEQFELYEXDQSI-UHFFFAOYSA-N","?",,,"a/thermodynamic","?","basic",7.36
"10672","O=C(N)C=C(O)C1(=CC=NC=C1)","NC(=O)C=C(O)C1C=CN=CC=1","InChI=1S/C8H8N2O2/c9-8(12)5-7(11)6-1-3-10-4-2-6/h1-5,11H,(H2,9,12)","VGIVMLGNUUTLDQ-UHFFFAOYSA-N","?","25","spectrophotometric","a1/apparent","?","basic",7.36
"16448","O=[N+]([O-])C=1(C(=CC2(=NC=CC(=C2(C=1))NCCC[NH+](C)C))C)","CC1=CC2N=CC=C(NCCCN(C)C)C=2C=C1[N+]([O-])=O","InChI=1S/C15H20N4O2/c1-11-9-14-12(10-15(11)19(20)21)13(5-7-17-14)16-6-4-8-18(2)3/h5,7,9-10H,4,6,8H2,1-3H3,(H,16,17)","DVFNALLNKWMVHG-UHFFFAOYSA-N","?","25","spectrophotometric","a1/apparent","?","basic",7.38
"13593","O=C([O-])C(C=1(N=C(CO)NC=1))(C)C","CC(C)(C1=CNC(CO)=N1)C(O)=O","InChI=1S/C8H12N2O3/c1-8(2,7(12)13)5-3-9-6(4-11)10-5/h3,11H,4H2,1-2H3,(H,9,10)(H,12,13)","GZYFDESWGSZUCI-UHFFFAOYSA-N","?","25","mean from 2","a1/apparent","OH","basic",7.38
"13210","O=C(OCCN(CC=C)C)C(=C)C","CC(=C)C(=O)OCCN(C)CC=C","InChI=1S/C10H17NO2/c1-5-6-11(4)7-8-13-10(12)9(2)3/h5H,1-2,6-8H2,3-4H3","ZVAUURVOTSQXKL-UHFFFAOYSA-N","?","25","mean from 3","a1/thermodynamic","?","basic",7.39
"17180","OC2(=CC=1(NC=3(C(=NC=CC=3(C=1C=C2))C)))","CC1=NC=CC2=C1NC1C=C(O)C=CC2=1","InChI=1S/C12H10N2O/c1-7-12-10(4-5-13-7)9-3-2-8(15)6-11(9)14-12/h2-6,14-15H,1H3","SATMZMMKDDTOSQ-UHFFFAOYSA-N","?","21","mean from 4","a1/thermodynamic","protone","basic",7.39
"12556","ClC1(=CC(=NC=C1)C2(=NC=CC(=C2)N))","NC1=CC(=NC=C1)C1C=C(Cl)C=CN=1","InChI=1S/C10H8ClN3/c11-7-1-3-13-9(5-7)10-6-8(12)2-4-14-10/h1-6H,(H2,12,14)","GGVSHZOGZWNPFF-UHFFFAOYSA-N","?","20","spectrophotometric","a1/apparent","=NH(+)-","basic",7.4
"16059","S1(C(=NC2(=C1C=CC=C2))C3(=CN4(CCC3CC4)))","C1CN2CCC1C(=C2)C1=NC2C=CC=CC=2S1","InChI=1S/C14H14N2S/c1-2-4-13-12(3-1)15-14(17-13)11-9-16-7-5-10(11)6-8-16/h1-4,9-10H,5-8H2","NBAPIQQREIVGBA-UHFFFAOYSA-N","?","25","potentiometric","a1/apparent","?","basic",7.4
"15803","O=[N+]([O-])C=3(C2(=C(NCCCCC[NH+](C)C)C=1(C(=CC=CC=1)N=C2C=CC=3)))","CN(C)CCCCCNC1=C2C(=CC=CC2=NC2=CC=CC=C21)[N+]([O-])=O","InChI=1S/C20H24N4O2/c1-23(2)14-7-3-6-13-21-20-15-9-4-5-10-16(15)22-17-11-8-12-18(19(17)20)24(25)26/h4-5,8-12H,3,6-7,13-14H2,1-2H3,(H,21,22)","WYLQXVOPFMBFJQ-UHFFFAOYSA-N","?","25","spectrophotometric","a1/apparent","?","basic",7.4
"15088","S(=O)(=O)(N1(CCNCC1))C2(=CC=C(C)C=C2)","CC1=CC=C(C=C1)S(=O)(=O)N1CCNCC1","InChI=1S/C11H16N2O2S/c1-10-2-4-11(5-3-10)16(14,15)13-8-6-12-7-9-13/h2-5,12H,6-9H2,1H3","VHFDYFUMWJSVCA-UHFFFAOYSA-N","?","20","mean from 2","a/apparent","?","basic",7.41
"15914","S(=O)(=O)(C1(=C(OC)C(OC)=C(OC)C=C1))CCN(CC)CC","COC1C(OC)=C(C=CC=1OC)S(=O)(=O)CCN(CC)CC","InChI=1S/C15H25NO5S/c1-6-16(7-2)10-11-22(17,18)13-9-8-12(19-3)14(20-4)15(13)21-5/h8-9H,6-7,10-11H2,1-5H3","PXTHPMMZJNHDIO-UHFFFAOYSA-N","?","20","potentiometric","a1/thermodynamic","amino","basic",7.41
"10712","OC1(=C(N=CN(C)C)C=CC=C1)","CN(C)C=NC1C=CC=CC=1O","InChI=1S/C9H12N2O/c1-11(2)7-10-8-5-3-4-6-9(8)12/h3-7,12H,1-2H3","ZZLRBBAANDKQAJ-UHFFFAOYSA-N","?","25","potentiometric","a1/apparent","?","basic",7.41
"14853","O=C([O-])C(NC(=O)C([NH3+])C)CC=1(N=CNC=1)","CC(=N)C(O)NC(CC1=CNC=N1)=C(O)O","InChI=1S/C9H14N4O3/c1-5(10)8(14)13-7(9(15)16)2-6-3-11-4-12-6/h3-4,8,10,13-16H,2H2,1H3,(H,11,12)","DYKVUBXEKMOQBW-UHFFFAOYSA-N","?, ?","25","potentiometric","a2/apparent","?, ?","basic",7.42
"15880","N(CC1(=CC=CC=C1))(CC2(=CC=CC=C2))CC3(=CC=CC=C3)","C(C1C=CC=CC=1)N(CC1C=CC=CC=1)CC1C=CC=CC=1","InChI=1S/C21H21N/c1-4-10-19(11-5-1)16-22(17-20-12-6-2-7-13-20)18-21-14-8-3-9-15-21/h1-15H,16-18H2","MXHTZQSKTCCMFG-UHFFFAOYSA-N","?","25","mean from 2","b1/apparent","?","basic",7.44
"14971","ClC=2(N(C1(=NC=3(C=CC=CC=3(C1=C(C=2)C))))C)","CC1C=C(Cl)N(C)C2=NC3C=CC=CC=3C=12","InChI=1S/C13H11ClN2/c1-8-7-11(14)16(2)13-12(8)9-5-3-4-6-10(9)15-13/h3-7H,1-2H3","ICWNRDMFSWIEDB-UHFFFAOYSA-N","?","25","spectrophotometric","b1/apparent","N-H(1+)","basic",7.45
"10927","O=C(NN=C1(CCN(C)CC1))C","CN1CCC(CC1)N=NC(=C)O","InChI=1S/C8H15N3O/c1-7(12)9-10-8-3-5-11(2)6-4-8/h8,12H,1,3-6H2,2H3","QYQMPKBHZFHTKM-UHFFFAOYSA-N","?","20","potentiometric","a/apparent","?","basic",7.45
"14635","O=C([O-])C(NC(=O)C[NH3+])CC=1(N=CNC=1)","N=CC(O)NC(CC1=CNC=N1)=C(O)O","InChI=1S/C8H12N4O3/c9-2-7(13)12-6(8(14)15)1-5-3-10-4-11-5/h2-4,7,9,12-15H,1H2,(H,10,11)","VCPPROGDWXHQPS-UHFFFAOYSA-N","?, ?","25","potentiometric","a2/apparent","?, ?","basic",7.455
"16310","ClC=2(N(C1(=NC=3(C=CC=CC=3(C1=C(C=2)CC))))C)","CCC1C=C(Cl)N(C)C2=NC3C=CC=CC=3C2=1","InChI=1S/C14H13ClN2/c1-3-9-8-12(15)17(2)14-13(9)10-6-4-5-7-11(10)16-14/h4-8H,3H2,1-2H3","ZLCGRPGKMKWXAF-UHFFFAOYSA-N","?","25","spectrophotometric","b1/apparent","N-H(1+)","basic",7.46