"Molecule name","OriginalSmiles","Canonical_QSARr","InChI_Code_QSARr","InChI Key_QSARr","Salt_Solvent (Concatenate)","temp","method","type","group","basicOrAcidic","pKa"
"16645","OC(C1(=CC=CC=C1))C(NC(C)C)C2(=CC=CC=C2)","CC(C)NC(C(O)C1=CC=CC=C1)C1=CC=CC=C1","InChI=1S/C17H21NO/c1-13(2)18-16(14-9-5-3-6-10-14)17(19)15-11-7-4-8-12-15/h3-13,16-19H,1-2H3","ILABSMRKFLZNPK-UHFFFAOYSA-N","?",,"potentiometric","b/apparent","?","basic",11.79
"12878","N=C(N)C1(=CC=CC=C1)","NC(=N)C1C=CC=CC=1","InChI=1S/C7H8N2/c8-7(9)6-4-2-1-3-5-6/h1-5H,(H3,8,9)","PXXJHWLDUBFPOL-UHFFFAOYSA-N","?","20","potentiometric","thermodynamic","NH3+","basic",11.8
"11877","N(C(C)C)(C(C)C)C(C)C","CC(C)N(C(C)C)C(C)C","InChI=1S/C9H21N/c1-7(2)10(8(3)4)9(5)6/h7-9H,1-6H3","RKBCYCFRFCNLTO-UHFFFAOYSA-N","?","24.9","spectrophotometric","a1/apparent","?","basic",11.86
"12737","N12(C(CCC1C)CCC2)","CC1CCC2CCCN21","InChI=1S/C8H15N/c1-7-4-5-8-3-2-6-9(7)8/h7-8H,2-6H2,1H3","VSRVVYVXYKVFBS-UHFFFAOYSA-N","?, ?","25","potentiometric","a1/apparent","NH(1+), NH(1+)","basic",11.879999999999999
"11646","N1(C(=CCCC)CCC1)(C)","CCCC=C1CCCN1C","InChI=1S/C9H17N/c1-3-4-6-9-7-5-8-10(9)2/h6H,3-5,7-8H2,1-2H3","KQCOZVZGOQJIHV-UHFFFAOYSA-N","?","26","potentiometric","a/apparent","NH%+&","basic",11.88
"14094","N(C(CC)(C)C)(C(C)(C)C)C","CC(C)(C)N(C)C(C)(C)CC","InChI=1S/C10H23N/c1-8-10(5,6)11(7)9(2,3)4/h8H2,1-7H3","HODGCVNTSLRUHK-UHFFFAOYSA-N","?","25","potentiometric","a1/apparent","?","basic",11.9
"13242","ON=C(C(=N[O-])CN(CC)CC)C","CC(N=O)C(CN(CC)CC)N=O","InChI=1S/C8H17N3O2/c1-4-11(5-2)6-8(10-13)7(3)9-12/h7-8H,4-6H2,1-3H3","VDVURHRUPPYEJL-UHFFFAOYSA-N","?","25","potentiometric","a2/apparent","?","basic",11.9
"12020","[O-]C1(=NC=2(C=CC=CC=2(N1)))","OC1NC2C=CC=CC=2N=1","InChI=1S/C7H6N2O/c10-7-8-5-3-1-2-4-6(5)9-7/h1-4H,(H2,8,9,10)","SILNNFMWIMZVEQ-UHFFFAOYSA-N","?","20","spectrophotometric","a2/apparent","?","basic",11.95
"13874","[O-]C1(=NN=CC=2(C1=CC=CC=2))","OC1N=NC=C2C=CC=CC2=1","InChI=1S/C8H6N2O/c11-8-7-4-2-1-3-6(7)5-9-10-8/h1-5H,(H,10,11)","IJAPPYDYQCXOEF-UHFFFAOYSA-N","?","20","potentiometric","a2/thermodynamic","?","basic",11.99
"13878","[O-]C1(=NC=CC=2(C1=NC=CC=2))","OC1N=CC=C2C=CC=NC2=1","InChI=1S/C8H6N2O/c11-8-7-6(3-5-10-8)2-1-4-9-7/h1-5H,(H,10,11)","VTUQISVBYRDYAW-UHFFFAOYSA-N","?","20","potentiometric","a2/apparent","?","basic",12.01
"12132","N(=C1(C=C(NCC)CC(C1)(C)C))CC","CC1(C)CC(CC(C1)=NCC)=NCC","InChI=1S/C12H22N2/c1-5-13-10-7-11(14-6-2)9-12(3,4)8-10/h5-9H2,1-4H3","XCOWSXPJZNQQIO-UHFFFAOYSA-N","?","25","potentiometric","a/apparent","?","basic",12.13
"11952","O=C1(CC=2(C=CC=CC=2(C1)))","OC1CC2=CC=CC=C2C=1","InChI=1S/C9H8O/c10-9-5-7-3-1-2-4-8(7)6-9/h1-5,10H,6H2","TXEUPGABAVOGIG-UHFFFAOYSA-N","?","25","spectrophotometric","a1/apparent","?","basic",12.2
"15360","O=C(OC3(=CC1(=C(N(C)C2(C1(CCN2C)C))C=C3)))[N-]C","CN1CCC2(C)C1N(C)C1=CC=C(C=C21)OC(=O)NC","InChI=1S/C15H21N3O2/c1-15-7-8-17(3)13(15)18(4)12-6-5-10(9-11(12)15)20-14(19)16-2/h5-6,9,13H,7-8H2,1-4H3,(H,16,19)","PIJVFDBKTWXHHD-UHFFFAOYSA-N","?","15",,"b2/apparent","?","basic",12.25
"15496","O4(CCN(C=3(C2(=C(N1(CCOCC1))C(OCC)=CC=C2C=CC=3OCC)))CC4)","CCOC1C=CC2=CC=C(OCC)C(=C2C=1N1CCOCC1)N1CCOCC1","InChI=1S/C22H30N2O4/c1-3-27-18-7-5-17-6-8-19(28-4-2)22(24-11-15-26-16-12-24)20(17)21(18)23-9-13-25-14-10-23/h5-8H,3-4,9-16H2,1-2H3","JHYVZQFMLBNWPZ-UHFFFAOYSA-N","?","25","spectrophotometric","a1/apparent","-NH3+","basic",12.5
"10071","N=C1(C=CN(C)C=C1)","CN1C=CC(=N)C=C1","InChI=1S/C6H8N2/c1-8-4-2-6(7)3-5-8/h2-5,7H,1H3","JWTVWQUUKNZIHH-UHFFFAOYSA-N","?","21","potentiometric","a/apparent","?","basic",12.5
"11108","[O-]C2(=C(C1(=NCCN1))C=CC=C2)","OC1=CC=CC=C1C1NCCN=1","InChI=1S/C9H10N2O/c12-8-4-2-1-3-7(8)9-10-5-6-11-9/h1-4,12H,5-6H2,(H,10,11)","CSFVISOIQMHABM-UHFFFAOYSA-N","?","20","potentiometric","a1/apparent","?","basic",12.58
"13742","O=C2(CC1(=C(C=CC=C1)CC2))","OC1CC2C=CC=CC=2CC=1","InChI=1S/C10H10O/c11-10-6-5-8-3-1-2-4-9(8)7-10/h1-4,6,11H,5,7H2","DYYLTWVZULPSBW-UHFFFAOYSA-N","?","25","spectrophotometric","a1/apparent","?","basic",12.83
"10956","O=C2(CC1(=C(C=CC(=C1)C)CC2))","CC1C=CC2CC=C(O)CC=2C=1","InChI=1S/C11H12O/c1-8-2-3-9-4-5-11(12)7-10(9)6-8/h2-3,5-6,12H,4,7H2,1H3","DSGRZLBARWNVFU-UHFFFAOYSA-N","?","25","spectrophotometric","a1/apparent","?","basic",12.94
"15829","O4(CCN(C=3(C2(=C(N1(CCOCC1))C(OC)=CC=C2C=CC=3OC)))CC4)","COC1=CC=C2C=CC(OC)=C(C2=C1N1CCOCC1)N1CCOCC1","InChI=1S/C20H26N2O4/c1-23-16-5-3-15-4-6-17(24-2)20(22-9-13-26-14-10-22)18(15)19(16)21-7-11-25-12-8-21/h3-6H,7-14H2,1-2H3","HSSNPSPGCWCHFV-UHFFFAOYSA-N","?","25","spectrophotometric","a1/apparent","-NH3+","basic",13.0
"10243","[O-]C1(=NC=CC(=C1)[O-])","OC1C=C(O)N=CC=1","InChI=1S/C5H5NO2/c7-4-1-2-6-5(8)3-4/h1-3H,(H2,6,7,8)","ZEZJPIDPVXJEME-UHFFFAOYSA-N","?","20","potentiometric","a3/apparent","?","basic",13.0
"17271","N=C(N)N","NC(N)=N","InChI=1S/CH5N3/c2-1(3)4/h(H5,2,3,4)","ZRALSGWEFCBTJO-UHFFFAOYSA-N","?","25","mean from 2","a1/apparent","?","basic",13.1
"17575","N=C(NC)N","CNC(N)=N","InChI=1S/C2H7N3/c1-5-2(3)4/h1H3,(H4,3,4,5)","CHJJGSNFBQVOTG-UHFFFAOYSA-N","?","25","potentiometric","a/apparent","?","basic",13.4
"17510","ClCC(=O)C","C=C(O)CCl","InChI=1S/C3H5ClO/c1-3(5)2-4/h5H,1-2H2","ZHLFBWPVNHZDRA-UHFFFAOYSA-N","?","25","spectrophotometric","a/apparent","?","basic",13.57
"17754","N=C(N(C)C)NC","CNC(=N)N(C)C","InChI=1S/C4H11N3/c1-6-4(5)7(2)3/h1-3H3,(H2,5,6)","NQOFYFRKWDXGJP-UHFFFAOYSA-N","?","25","potentiometric","a/apparent","?","basic",13.6
"10500","N=C(N(C)C)N(C)C","CN(C)C(=N)N(C)C","InChI=1S/C5H13N3/c1-7(2)5(6)8(3)4/h6H,1-4H3","KYVBNYUBXIEUFW-UHFFFAOYSA-N","?","25","potentiometric","a/apparent","?","basic",13.6
"10502","N(=C(N(C)C)NC)C","CN/C(=N/C)/N(C)C","InChI=1S/C5H13N3/c1-6-5(7-2)8(3)4/h1-4H3,(H,6,7)","NCSXOMQDXHCTOY-UHFFFAOYSA-N","?","25","potentiometric","a/apparent","?","basic",13.9
"17506","O=CC(C)C","CC(C)=CO","InChI=1S/C4H8O/c1-4(2)3-5/h3,5H,1-2H3","WVYSWPBECUHBMJ-UHFFFAOYSA-N","?","25","spectrophotometric","a1/apparent","?","basic",15.67
"11438","O=C(C1(=CC=CC=C1))CC","CC=C(O)C1C=CC=CC=1","InChI=1S/C9H10O/c1-2-9(10)8-6-4-3-5-7-8/h2-7,10H,1H3","HJZGVINDDKDVJZ-UHFFFAOYSA-N","?","25",,"a1/apparent","?","basic",17.56
"12810","O=C(C1(=CC=CC=C1))C","C=C(O)C1C=CC=CC=1","InChI=1S/C8H8O/c1-7(9)8-5-3-2-4-6-8/h2-6,9H,1H2","VEIIEWOTAHXGKS-UHFFFAOYSA-N","?","25","mean from 2","a1/thermodynamic","CO-CH3","basic",18.34
"17254","N#CCC","CCC#N","InChI=1S/C3H5N/c1-2-3-4/h2H2,1H3","FVSKHRXBFJPNKK-UHFFFAOYSA-N","?","25","spectrophotometric","a1/apparent","C-H","basic",30.9