"Molecule name","OriginalSmiles","Canonical_QSARr","InChI_Code_QSARr","InChI Key_QSARr","Salt_Solvent (Concatenate)","temp","method","type","group","basicOrAcidic","pKa"
"12068","N2(=C(N)C=1(NN=CC=1N=C2))","NC1=NC=NC2C=NNC=21","InChI=1S/C5H5N5/c6-5-4-3(1-9-10-4)7-2-8-5/h1-2H,(H,9,10)(H2,6,7,8)","MPDXYVOXVJOKIN-UHFFFAOYSA-N","?","20","spectrophotometric","a1/apparent","?","basic",5.0
"10280","OCC1(=CN=CC=C1)","OCC1=CN=CC=C1","InChI=1S/C6H7NO/c8-5-6-2-1-3-7-4-6/h1-4,8H,5H2","MVQVNTPHUGQQHK-UHFFFAOYSA-N","?","25","potentiometric","a1/apparent","?","basic",5.0
"14047","O=C1(NC=2(C=C(N)C=CC=2(N1)))","NC1=CC2NC(=O)NC=2C=C1","InChI=1S/C7H7N3O/c8-4-1-2-5-6(3-4)10-7(11)9-5/h1-3H,8H2,(H2,9,10,11)","BCXSVFBDMPSKPT-UHFFFAOYSA-N","?","18","potentiometric","b/apparent","?","basic",5.0
"11243","N2(=C(N)C1(=C(N(C)N=C1)N=C2C))","CC1N=C(N)C2C=NN(C)C=2N=1","InChI=1S/C7H9N5/c1-4-10-6(8)5-3-9-12(2)7(5)11-4/h3H,1-2H3,(H2,8,10,11)","UPZKDMZTYWNVST-UHFFFAOYSA-N","?","20","spectrophotometric","a/apparent","?","basic",5.0
"13438","N2(=C(NC)C1(=C(N(C)N=C1)N=C2C))","CC1N=C(NC)C2C=NN(C)C=2N=1","InChI=1S/C8H11N5/c1-5-11-7(9-2)6-4-10-13(3)8(6)12-5/h4H,1-3H3,(H,9,11,12)","ZPDDPGKEOLNDEZ-UHFFFAOYSA-N","?","20","spectrophotometric","a/apparent","?","basic",5.0
"11130","N=1(C=2(C(C=CC=1C)=CC=C(C=2)C))","CC1C=C2N=C(C)C=CC2=CC=1","InChI=1S/C11H11N/c1-8-3-5-10-6-4-9(2)12-11(10)7-8/h3-7H,1-2H3","QXKPLNCZSFACPU-UHFFFAOYSA-N","?","25","potentiometric","b/apparent","?","basic",5.01
"11136","ClC2(=CC=C(C1(SCCN1))C=C2)","ClC1=CC=C(C=C1)C1NCCS1","InChI=1S/C9H10ClNS/c10-8-3-1-7(2-4-8)9-11-5-6-12-9/h1-4,9,11H,5-6H2","CRGIYWDTHYLXNH-UHFFFAOYSA-N","?","27","mean from 2","a1/apparent","=NH2(1+)","basic",5.01
"13739","O3(C(CN(CC1(OC1))CC2(OC2))C3)","C(C1CO1)N(CC1CO1)CC1CO1","InChI=1S/C9H15NO3/c1(7-4-11-7)10(2-8-5-12-8)3-9-6-13-9/h7-9H,1-6H2","CBOLARLSGQXRBB-UHFFFAOYSA-N","?","20","potentiometric","b1/apparent","NH%+&","basic",5.01
"13982","N2(=C(N)C=1(NN=C(C=1N=C2)C))","CC1=NNC2C(N)=NC=NC=21","InChI=1S/C6H7N5/c1-3-4-5(11-10-3)6(7)9-2-8-4/h2H,1H3,(H,10,11)(H2,7,8,9)","CKQUGJFXOKFYKJ-UHFFFAOYSA-N","?","20","spectrophotometric","a/apparent","?","basic",5.02
"11676","S1(C(=NCC1C)C(C)(C)C)","CC1CN=C(S1)C(C)(C)C","InChI=1S/C8H15NS/c1-6-5-9-7(10-6)8(2,3)4/h6H,5H2,1-4H3","MKAWAZIPOVAZKN-UHFFFAOYSA-N","?","25","mean from 3","a1/apparent","NH(+)","basic",5.02
"13944","OC=2(C1(=NC=CC=C1C=CC=2))","OC1=CC=CC2=CC=CN=C21","InChI=1S/C9H7NO/c11-8-5-1-3-7-4-2-6-10-9(7)8/h1-6,11H","MCJGNVYPOGVAJF-UHFFFAOYSA-N","?","23","mean from 14","a2/thermodynamic","N(+)-H","basic",5.02
"12958","O=C(N1(C(=NC=C1)C))C","CC1=NC=CN1C(=C)O","InChI=1S/C6H8N2O/c1-5-7-3-4-8(5)6(2)9/h3-4,9H,2H2,1H3","PAYQJSBDURCOOC-UHFFFAOYSA-N","?","25",,"a1/apparent","?","basic",5.03
"15282","P(=O)(C1(CCCCC1))(C2(CCCCC2))C3(CCCCC3)","O=P(C1CCCCC1)(C1CCCCC1)C1CCCCC1","InChI=1S/C18H33OP/c19-20(16-10-4-1-5-11-16,17-12-6-2-7-13-17)18-14-8-3-9-15-18/h16-18H,1-15H2","LEFPWWWXFFNJAA-UHFFFAOYSA-N","?","25","conductometric","a2/apparent","?","basic",5.04
"10186","NC1(=CC=C(C)C=C1)","CC1=CC=C(N)C=C1","InChI=1S/C7H9N/c1-6-2-4-7(8)5-3-6/h2-5H,8H2,1H3","RZXMPPFPUUCRFN-UHFFFAOYSA-N","?","23","mean from 17","b1/apparent","NH%+&","basic",5.04
"11193","O(C2(=CC=1(C(=NC=CC=1)C=C2)))C","COC1=CC2=CC=CN=C2C=C1","InChI=1S/C10H9NO/c1-12-9-4-5-10-8(7-9)3-2-6-11-10/h2-7H,1H3","HFDLDPJYCIEXJP-UHFFFAOYSA-N","?","20","mean from 2","a1/apparent","?","basic",5.05
"13888","N1(=C(N=C2(N=CNC2(=C1N)))N)","NC1N=C2N=CNC2=C(N)N=1","InChI=1S/C5H6N6/c6-3-2-4(9-1-8-2)11-5(7)10-3/h1H,(H5,6,7,8,9,10,11)","MSSXOMSJDRHRMC-UHFFFAOYSA-N","?","20","mean from 2","a1/apparent","?","basic",5.05
"11511","N(C1(=CC=C(N)C=C1))(C)C","CN(C)C1C=CC(N)=CC=1","InChI=1S/C8H12N2/c1-10(2)8-5-3-7(9)4-6-8/h3-6H,9H2,1-2H3","BZORFPDSXLZWJF-UHFFFAOYSA-N","?, ?","25","mean from 2","b1/apparent","?, ?","basic",5.05
"13828","N=1(C(N)=CC2(=CC=CC=C2(C=1)))","NC1=CC2=CC=CC=C2C=N1","InChI=1S/C9H8N2/c10-9-5-7-3-1-2-4-8(7)6-11-9/h1-6H,(H2,10,11)","VYCKDIRCVDCQAE-UHFFFAOYSA-N","?","20","potentiometric","a/apparent","?","basic",5.05
"17250","ON=CN","NCN=O","InChI=1S/CH4N2O/c2-1-3-4/h1-2H2","KNELKVOQONUEJI-UHFFFAOYSA-N","?","20","potentiometric","a1/apparent","?","basic",5.05
"12987","N1(=C(N=C(N)N=C1N)N)","NC1N=C(N)N=C(N)N=1","InChI=1S/C3H6N6/c4-1-7-2(5)9-3(6)8-1/h(H6,4,5,6,7,8,9)","JDSHMPZPIAZGSV-UHFFFAOYSA-N","?","25","mean from 7","a1/apparent","NH3(+)","basic",5.06
"11578","O=C(N)CC1(=CC=NC=C1)","N=C(O)CC1C=CN=CC=1","InChI=1S/C7H8N2O/c8-7(10)5-6-1-3-9-4-2-6/h1-4H,5H2,(H2,8,10)","YEALAJQPOVKTOH-UHFFFAOYSA-N","?","25","potentiometric","a1/apparent","?","basic",5.08
"11235","N2(=C(NC)C=1(NC=NC=1N=C2C))","CC1N=C(NC)C2NC=NC=2N=1","InChI=1S/C7H9N5/c1-4-11-6(8-2)5-7(12-4)10-3-9-5/h3H,1-2H3,(H2,8,9,10,11,12)","GKRNNJIPCJBVCR-UHFFFAOYSA-N","?","20","spectrophotometric","a/apparent","?","basic",5.08
"14420","SCCNC1(=CC=C(C)C=C1)","CC1=CC=C(C=C1)NCCS","InChI=1S/C9H13NS/c1-8-2-4-9(5-3-8)10-6-7-11/h2-5,10-11H,6-7H2,1H3","XBVHZBBSMUUACI-UHFFFAOYSA-N","?","17","potentiometric","b/apparent","?","basic",5.08
"12164","N(C1(=CC=CC=C1))CCCCCCC","CCCCCCCNC1C=CC=CC=1","InChI=1S/C13H21N/c1-2-3-4-5-9-12-14-13-10-7-6-8-11-13/h6-8,10-11,14H,2-5,9,12H2,1H3","JHXGAYWKTQKNGW-UHFFFAOYSA-N","?","24.9","spectrophotometric","a1/apparent","?","basic",5.09
"14357","O=C(N)CCC1(=NC=CC=C1)","N=C(O)CCC1=CC=CC=N1","InChI=1S/C8H10N2O/c9-8(11)5-4-7-3-1-2-6-10-7/h1-3,6H,4-5H2,(H2,9,11)","IYOIBZYIRXERTL-UHFFFAOYSA-N","?","25","potentiometric","a1/apparent","?","basic",5.09
"13906","N=2(C=1(C(=CC(C)=CC=1)C=CC=2))","CC1C=C2C=CC=NC2=CC=1","InChI=1S/C10H9N/c1-8-4-5-10-9(7-8)3-2-6-11-10/h2-7H,1H3","LUYISICIYVKBTA-UHFFFAOYSA-N","?","22","mean from 3","a1/apparent","?","basic",5.1
"13057","OC1(=C(N)C(O)=CC=C1)","NC1C(O)=CC=CC=1O","InChI=1S/C6H7NO2/c7-6-4(8)2-1-3-5(6)9/h1-3,8-9H,7H2","JEPCLNGRAIMPQV-UHFFFAOYSA-N","?","20","spectrophotometric","a1/apparent","?","basic",5.1
"12835","O=C1(OC(CC(C1)=O)C)","CC1CC(=O)C=C(O)O1","InChI=1S/C6H8O3/c1-4-2-5(7)3-6(8)9-4/h3-4,8H,2H2,1H3","HMWCYOMMPVCVEE-UHFFFAOYSA-N","?","17","potentiometric","a/apparent","?","basic",5.1
"14659","OCCN(C1(=NC(=NC(=N1)N)N))CCO","NC1=NC(=NC(N)=N1)N(CCO)CCO","InChI=1S/C7H14N6O2/c8-5-10-6(9)12-7(11-5)13(1-3-14)2-4-15/h14-15H,1-4H2,(H4,8,9,10,11,12)","HBZYZTJALUPAGJ-UHFFFAOYSA-N","?","25","potentiometric","b/apparent","?","basic",5.1
"16746","S1(C3(=C(NC2(=C1C=C(N(C)C)C=C2))C=C(C)C(=C3)N))","CC1=CC2NC3C=CC(=CC=3SC=2C=C1N)N(C)C","InChI=1S/C15H17N3S/c1-9-6-13-15(8-11(9)16)19-14-7-10(18(2)3)4-5-12(14)17-13/h4-8,17H,16H2,1-3H3","KFHYCOZRLSIKRH-UHFFFAOYSA-N","?, ?","20","potentiometric","a2/thermodynamic","?, ?","basic",5.109999999999999
"14395","N(C1(=CC=CC=C1))CCCC","CCCCNC1C=CC=CC=1","InChI=1S/C10H15N/c1-2-3-9-11-10-7-5-4-6-8-10/h4-8,11H,2-3,9H2,1H3","VSHTWPWTCXQLQN-UHFFFAOYSA-N","?","25","mean from 5","a/thermodynamic","?","basic",5.11
"11127","N=1(C=2(C(C(C)=CC=1C)=CC=CC=2))","CC1C=C(C)C2=CC=CC=C2N=1","InChI=1S/C11H11N/c1-8-7-9(2)12-11-6-4-3-5-10(8)11/h3-7H,1-2H3","ZTNANFDSJRRZRJ-UHFFFAOYSA-N","?","25","potentiometric","b/apparent","?","basic",5.11
"13425","S1(C(NCC1)C2(=CC(OC)=CC=C2))","COC1C=C(C=CC=1)C1NCCS1","InChI=1S/C10H13NOS/c1-12-9-4-2-3-8(7-9)10-11-5-6-13-10/h2-4,7,10-11H,5-6H2,1H3","MAZFHPGDLDKIHS-UHFFFAOYSA-N","?","27","potentiometric","a1/apparent","N-H","basic",5.12
"16893","O3(CCN(CCNC2(=[N+](N=C(C1(=CC=CC=C1))C=C2C)C))CC3)","CC1=CC(=N[N+](C)=C1NCCN1CCOCC1)C1C=CC=CC=1","InChI=1S/C18H24N4O/c1-15-14-17(16-6-4-3-5-7-16)20-21(2)18(15)19-8-9-22-10-12-23-13-11-22/h3-7,14H,8-13H2,1-2H3/p+1","ULKAFABQSZYPKJ-UHFFFAOYSA-O","?","25","potentiometric","a1/apparent","?","basic",5.12
"11621","N(C1(=CC=CC=C1))CCC","CCCNC1C=CC=CC=1","InChI=1S/C9H13N/c1-2-8-10-9-6-4-3-5-7-9/h3-7,10H,2,8H2,1H3","CDZOGLJOFWFVOZ-UHFFFAOYSA-N","?","22","mean from 6","a1/apparent","?","basic",5.12
"16150","OC2(=C(N=C(C1(=C(O)C=CC=C1))C)C=CC=C2)","CC(=NC1C=CC=CC=1O)C1C=CC=CC=1O","InChI=1S/C14H13NO2/c1-10(11-6-2-4-8-13(11)16)15-12-7-3-5-9-14(12)17/h2-9,16-17H,1H3","KAXKOYJTVVHQGF-UHFFFAOYSA-N","?","25","potentiometric","a1/apparent","O-H","basic",5.14
"14365","ON=C(N)C1(=CC=C(C)C=C1)","CC1=CC=C(C=C1)C(N)N=O","InChI=1S/C8H10N2O/c1-6-2-4-7(5-3-6)8(9)10-11/h2-5,8H,9H2,1H3","MTMBQBNSETZQKN-UHFFFAOYSA-N","?","25","potentiometric","a1","?","basic",5.14
"13319","S1(C(=NC=C1)NCC2(=CC=CC=C2))","C(NC1=NC=CS1)C1C=CC=CC=1","InChI=1S/C10H10N2S/c1-2-4-9(5-3-1)8-12-10-11-6-7-13-10/h1-7H,8H2,(H,11,12)","QSLBXMRJPQRVER-UHFFFAOYSA-N","?","25","spectrophotometric","a1/thermodynamic","?","basic",5.15
"13894","N=1(C=2(C(C=C(C=1)C)=CC=CC=2))","CC1=CC2=CC=CC=C2N=C1","InChI=1S/C10H9N/c1-8-6-9-4-2-3-5-10(9)11-7-8/h2-7H,1H3","DTBDAFLSBDGPEA-UHFFFAOYSA-N","?","20","mean from 2","b/apparent","?","basic",5.15
"16521","OCCN(C1(=NC(=NC(=N1)N)N(CCO)CCO))CCO","NC1N=C(N=C(N=1)N(CCO)CCO)N(CCO)CCO","InChI=1S/C11H22N6O4/c12-9-13-10(16(1-5-18)2-6-19)15-11(14-9)17(3-7-20)4-8-21/h18-21H,1-8H2,(H2,12,13,14,15)","JJWXIZWEJIQNDL-UHFFFAOYSA-N","?","25","potentiometric","b/apparent","?","basic",5.15
"16020","N=3(C=2(C(=C1(C(C=CC=C1)=CC=2))C=CC=3))","C1=CC=CC2=C3C=CC=NC3=CC=C21","InChI=1S/C13H9N/c1-2-5-11-10(4-1)7-8-13-12(11)6-3-9-14-13/h1-9H","HCAUQPZEWLULFJ-UHFFFAOYSA-N","?","20","spectrophotometric","a1/apparent","NH+","basic",5.15
"11590","O=CC1(=NC=CN1CCC)","CCCN1C=CN=C1C=O","InChI=1S/C7H10N2O/c1-2-4-9-5-3-8-7(9)6-10/h3,5-6H,2,4H2,1H3","COIFMOLQDBIKOF-UHFFFAOYSA-N","?","25","potentiometric","a1/apparent","?","basic",5.15
"12086","N=1(NC=2(C=CC(=CC=2(C=1))N))","NC1=CC2C=NNC=2C=C1","InChI=1S/C7H7N3/c8-6-1-2-7-5(3-6)4-9-10-7/h1-4H,8H2,(H,9,10)","XBTOSRUBOXQWBO-UHFFFAOYSA-N","?",,"potentiometric","a/apparent","?","basic",5.15
"11614","NC1(=CC(=C(C)C(=C1)C)C)","CC1C=C(N)C=C(C)C=1C","InChI=1S/C9H13N/c1-6-4-9(10)5-7(2)8(6)3/h4-5H,10H2,1-3H3","BXCUMAUHMPSRPZ-UHFFFAOYSA-N","?","20.5","potentiometric","a/apparent","?","basic",5.15
"13470","O=[N+]([O-])C2(=CC=1(N=C(C)NC=1C=C2))","CC1NC2C=CC(=CC=2N=1)[N+]([O-])=O","InChI=1S/C8H7N3O2/c1-5-9-7-3-2-6(11(12)13)4-8(7)10-5/h2-4H,1H3,(H,9,10)","RKRXTVLCZDPERO-UHFFFAOYSA-N","?","20","potentiometric","a1/apparent","?","basic",5.16
"17103","OC2(=CC=C(NCC1(=CC=CC=C1))C=C2)","OC1=CC=C(C=C1)NCC1C=CC=CC=1","InChI=1S/C13H13NO/c15-13-8-6-12(7-9-13)14-10-11-4-2-1-3-5-11/h1-9,14-15H,10H2","SRYYOKKLTBRLHT-UHFFFAOYSA-N","?","25",,"b/thermodynamic","?","basic",5.17
"14303","N1(=NC(=C(C)C(=C1C)CC)C)","CCC1C(C)=C(C)N=NC=1C","InChI=1S/C9H14N2/c1-5-9-6(2)7(3)10-11-8(9)4/h5H2,1-4H3","QNHLVARSNAGPNO-UHFFFAOYSA-N","?","16.5","potentiometric","a/apparent","?","basic",5.17
"14660","OCCNC1(=NC(=NC(=N1)N)NCCO)","NC1N=C(NCCO)N=C(NCCO)N=1","InChI=1S/C7H14N6O2/c8-5-11-6(9-1-3-14)13-7(12-5)10-2-4-15/h14-15H,1-4H2,(H4,8,9,10,11,12,13)","SMCJDZBBLDNQQX-UHFFFAOYSA-N","?","25","potentiometric","b/apparent","?","basic",5.18
"10864","SCCNC1(=CC(OC)=CC=C1)","COC1C=C(C=CC=1)NCCS","InChI=1S/C9H13NOS/c1-11-9-4-2-3-8(7-9)10-5-6-12/h2-4,7,10,12H,5-6H2,1H3","UJRPUHHOQBDEME-UHFFFAOYSA-N","?","17","potentiometric","b/apparent","?","basic",5.18
"17899","N1(=NC=CC=C1N)","NC1=CC=CN=N1","InChI=1S/C4H5N3/c5-4-2-1-3-6-7-4/h1-3H,(H2,5,7)","LETVJWLLIMJADE-UHFFFAOYSA-N","?","20",,"a/apparent","?","basic",5.19
"15613","OCCNC1(=NC(=NC(=N1)NCCO)NCCO)","OCCNC1N=C(NCCO)N=C(NCCO)N=1","InChI=1S/C9H18N6O3/c16-4-1-10-7-13-8(11-2-5-17)15-9(14-7)12-3-6-18/h16-18H,1-6H2,(H3,10,11,12,13,14,15)","MNGSQDSFUODZAR-UHFFFAOYSA-N","?","25","potentiometric","b/apparent","?","basic",5.19
"13891","NC2(=CC1(=C(CCCC1)C=C2))","NC1=CC2CCCCC=2C=C1","InChI=1S/C10H13N/c11-10-6-5-8-3-1-2-4-9(8)7-10/h5-7H,1-4,11H2","MOXOFSFWYLTCFU-UHFFFAOYSA-N","?","17","potentiometric","a/apparent","?","basic",5.2
"10752","N(C1(=CC=CC=C1))(CC(C)C)C","CC(C)CN(C)C1C=CC=CC=1","InChI=1S/C11H17N/c1-10(2)9-12(3)11-7-5-4-6-8-11/h4-8,10H,9H2,1-3H3","VOFKUYCFQAJCSR-UHFFFAOYSA-N","?",,,"a/apparent","?","basic",5.2
"17161","N=3(C=2(C(=C1(C(C(N)=CC=C1)=CC=2))C=CC=3))","NC1=CC=CC2C1=CC=C1N=CC=CC=21","InChI=1S/C13H10N2/c14-12-5-1-3-9-10(12)6-7-13-11(9)4-2-8-15-13/h1-8H,14H2","KQUCUUMTUKZYAI-UHFFFAOYSA-N","?","20","spectrophotometric","a/apparent","?","basic",5.2
"15535","S(C1(=NC=2(C=C3(CCCCC3(=CC=2(N1))))))CC(=O)[O-]","OC(O)=CSC1NC2C=C3CCCCC3=CC=2N=1","InChI=1S/C13H14N2O2S/c16-12(17)7-18-13-14-10-5-8-3-1-2-4-9(8)6-11(10)15-13/h5-7,16-17H,1-4H2,(H,14,15)","MIEVPHKTERFNNY-UHFFFAOYSA-N","?","20","spectrophotometric","a/apparent","?","basic",5.2
"17268","ON(C)C","CN(C)O","InChI=1S/C2H7NO/c1-3(2)4/h4H,1-2H3","VMESOKCXSYNAKD-UHFFFAOYSA-N","?",,"potentiometric","a/thermodynamic","?","basic",5.2
"13126","OCC1(=NC(=CC=C1)C)","CC1=CC=CC(CO)=N1","InChI=1S/C7H9NO/c1-6-3-2-4-7(5-9)8-6/h2-4,9H,5H2,1H3","JLVBSBMJQUMAMW-UHFFFAOYSA-N","?","25","potentiometric","a/apparent","NH%+&","basic",5.2
"13002","N1(=CC(=CC(=C1)C)CC)","CC1C=C(CC)C=NC=1","InChI=1S/C8H11N/c1-3-8-4-7(2)5-9-6-8/h4-6H,3H2,1-2H3","XTLUAAHBKVFNPF-UHFFFAOYSA-N","?","20",,"a/apparent","NHE+","basic",5.2
"14486","O=C([O-])CC1(=CC=C(N)C=C1)","NC1C=CC(C=C(O)O)=CC=1","InChI=1S/C8H9NO2/c9-7-3-1-6(2-4-7)5-8(10)11/h1-5,10-11H,9H2","BGWIMDWNHZAHTN-UHFFFAOYSA-N","?","20","potentiometric","a/thermodynamic","?","basic",5.2
"13917","S1(C(NCC1)C2(=CC=CC=C2))","C1CSC(N1)C1C=CC=CC=1","InChI=1S/C9H11NS/c1-2-4-8(5-3-1)9-10-6-7-11-9/h1-5,9-10H,6-7H2","NXOMVTLTYYYYPC-UHFFFAOYSA-N","?","27","mean from 2","a1/apparent","=NH2(1+)","basic",5.2
"13970","OC=2(C=1(C(=NC=CC=1)C=CC=2))","OC1=CC=CC2=NC=CC=C21","InChI=1S/C9H7NO/c11-9-5-1-4-8-7(9)3-2-6-10-8/h1-6,11H","GYESAYHWISMZOK-UHFFFAOYSA-N","?","20","potentiometric","a1/apparent","?","basic",5.2
"13601","N(C1(=CC=CC=C1))CCCCCC","CCCCCCNC1C=CC=CC=1","InChI=1S/C12H19N/c1-2-3-4-8-11-13-12-9-6-5-7-10-12/h5-7,9-10,13H,2-4,8,11H2,1H3","OXHJCNSXYDSOFN-UHFFFAOYSA-N","?","24","mean from 2","a1/apparent","?","basic",5.21
"16321","O=C([O-])C3(=CC=1(C(=NC2(=CC=CC=C2(C=1)))C=C3))","OC(=O)C1=CC2=CC3C=CC=CC=3N=C2C=C1","InChI=1S/C14H9NO2/c16-14(17)10-5-6-13-11(8-10)7-9-3-1-2-4-12(9)15-13/h1-8H,(H,16,17)","ZCIXDWOBWIAUNV-UHFFFAOYSA-N","?","20","spectrophotometric","a2/apparent","?","basic",5.22
"14956","N=3(C2(=C1(N=CC(C)=CC1=CC=C2C=C(C=3)C)))","CC1=CC2=CC=C3C=C(C)C=NC3=C2N=C1","InChI=1S/C14H12N2/c1-9-5-11-3-4-12-6-10(2)8-16-14(12)13(11)15-7-9/h3-8H,1-2H3","KSACKJIWQPGKMJ-UHFFFAOYSA-N","?","25","potentiometric","a/apparent","?","basic",5.23
"14383","N1(=C(N=C(N)N=C1N)NCC)","CCNC1N=C(N)N=C(N)N=1","InChI=1S/C5H10N6/c1-2-8-5-10-3(6)9-4(7)11-5/h2H2,1H3,(H5,6,7,8,9,10,11)","STMSRQMGUCRAKM-UHFFFAOYSA-N","?","25","potentiometric","b/apparent","?","basic",5.23
"15106","O(C2(=C1(N=C(CO)N(C1=C(OC)C=C2)C)))C","COC1C=CC(OC)=C2N=C(CO)N(C)C=12","InChI=1S/C11H14N2O3/c1-13-9(6-14)12-10-7(15-2)4-5-8(16-3)11(10)13/h4-5,14H,6H2,1-3H3","VZHBPLBQXJCXCQ-UHFFFAOYSA-N","?","30","spectrophotometric","a1/apparent","N(1+)-H","basic",5.24
"13729","N=3(C=1(C(=CC2(=CC=CC=C2(C=1)))NC=3))","C1NC2=CC3=CC=CC=C3C=C2N=1","InChI=1S/C11H8N2/c1-2-4-9-6-11-10(12-7-13-11)5-8(9)3-1/h1-7H,(H,12,13)","USYCQABRSUEURP-UHFFFAOYSA-N","?","20","potentiometric","a1/apparent","?","basic",5.24
"13897","N=2(C=1(C(=CC=C(C=1)C)C=CC=2))","CC1C=C2N=CC=CC2=CC=1","InChI=1S/C10H9N/c1-8-4-5-9-3-2-6-11-10(9)7-8/h2-7H,1H3","KDYVCOSVYOSHOL-UHFFFAOYSA-N","?","20","mean from 3","b/apparent","?","basic",5.25
"14020","N=1(NC=2(C=CC(=CC=2(C=1C))N))","CC1=NNC2C=CC(N)=CC=21","InChI=1S/C8H9N3/c1-5-7-4-6(9)2-3-8(7)11-10-5/h2-4H,9H2,1H3,(H,10,11)","HQMYDRGGBUKAKP-UHFFFAOYSA-N","?",,"potentiometric","a/apparent","?","basic",5.25
"11147","S1(C(NCC1)C2(=CC(=CC=C2)C))","CC1C=C(C=CC=1)C1NCCS1","InChI=1S/C10H13NS/c1-8-3-2-4-9(7-8)10-11-5-6-12-10/h2-4,7,10-11H,5-6H2,1H3","XGRWDOHURTVHMY-UHFFFAOYSA-N","?","27","mean from 2","a1/apparent","=NH2(1+)","basic",5.26
"17151","N=3(C2(=C1(N=CC=CC1=CC(=C2C=CC=3)C)))","CC1C=C2C=CC=NC2=C2N=CC=CC2=1","InChI=1S/C13H10N2/c1-9-8-10-4-2-6-14-12(10)13-11(9)5-3-7-15-13/h2-8H,1H3","UJAQYOZROIFQHO-UHFFFAOYSA-N","?","25","potentiometric","a/apparent","?","basic",5.26
"17308","N1(=CC=CC=C1)","C1=CC=CC=N1","InChI=1S/C5H5N/c1-2-4-6-5-3-1/h1-5H","JUJWROOIHBZHMG-UHFFFAOYSA-N","?","23","mean from 46","a1/apparent","NH(1+)","basic",5.26
"12369","O=C(N2(C1(=C(N=CN=C1C)NCC2)))C","CC1=NC=NC2NCCN(C(=C)O)C=21","InChI=1S/C9H12N4O/c1-6-8-9(12-5-11-6)10-3-4-13(8)7(2)14/h5,14H,2-4H2,1H3,(H,10,11,12)","OYGXDDLLQNOGSU-UHFFFAOYSA-N","?","20","potentiometric","a/apparent","?","basic",5.26
"13938","OC2(=CC=1(C(=NC=CC=1)C=C2))","OC1=CC2=CC=CN=C2C=C1","InChI=1S/C9H7NO/c11-8-3-4-9-7(6-8)2-1-5-10-9/h1-6,11H","OVYWMEWYEJLIER-UHFFFAOYSA-N","?","20","mean from 2","a1/apparent","=NH(1+)-","basic",5.26
"13733","N=3(C2(=C(C=1(C(=CC=CC=1)C=C2))NC=3))","C1NC2C3=CC=CC=C3C=CC=2N=1","InChI=1S/C11H8N2/c1-2-4-9-8(3-1)5-6-10-11(9)13-7-12-10/h1-7H,(H,12,13)","HCCNHYWZYYIOFM-UHFFFAOYSA-N","?","20","potentiometric","a1/apparent","?","basic",5.28
"16598","OC(C1(=NC=2(C=CC=CC=2(N1))))C(O)C(O)C(O)CO","OCC(O)C(O)C(O)C(O)C1NC2C=CC=CC=2N=1","InChI=1S/C12H16N2O5/c15-5-8(16)9(17)10(18)11(19)12-13-6-3-1-2-4-7(6)14-12/h1-4,8-11,15-19H,5H2,(H,13,14)","LBMJXDRTHCOBGU-UHFFFAOYSA-N","?","25","potentiometric","a/apparent","?","basic",5.28
"11232","N1(=C(NC=C1)C(N)C2(=NC=CN2))","NC(C1NC=CN=1)C1NC=CN=1","InChI=1S/C7H9N5/c8-5(6-9-1-2-10-6)7-11-3-4-12-7/h1-5H,8H2,(H,9,10)(H,11,12)","JBWNTRKSBCIBEO-UHFFFAOYSA-N","?, ?","24.9","potentiometric","a3/apparent","NH, NH","basic",5.28
"11678","S1(C(=NC(C1)CC)C(C)C)","CC(C)C1=NC(CS1)CC","InChI=1S/C8H15NS/c1-4-7-5-10-8(9-7)6(2)3/h6-7H,4-5H2,1-3H3","FAZVZOUZSCQCIA-UHFFFAOYSA-N","?","25","potentiometric","a1/apparent","NH(+)","basic",5.28
"11182","OC=2(C1(=NC=CC=C1C(C)=CC=2))","CC1=CC=C(O)C2=NC=CC=C21","InChI=1S/C10H9NO/c1-7-4-5-9(12)10-8(7)3-2-6-11-10/h2-6,12H,1H3","RPVGLMKJGQMQSN-UHFFFAOYSA-N","?","25","potentiometric","a1/apparent","?","basic",5.29
"17314","S1(C(=NCC1)C)","CC1=NCCS1","InChI=1S/C4H7NS/c1-4-5-2-3-6-4/h2-3H2,1H3","JUIQOABNSLTJSW-UHFFFAOYSA-N","?","25","mean from 2","a/apparent","?","basic",5.29
"11092","OCCN2(C1(=C(C=CC=C1)N=C2))","OCCN1C=NC2C=CC=CC1=2","InChI=1S/C9H10N2O/c12-6-5-11-7-10-8-3-1-2-4-9(8)11/h1-4,7,12H,5-6H2","DJRLXHBFATVHJX-UHFFFAOYSA-N","?","25","potentiometric","a/apparent","?","basic",5.29
"10766","[Si](CNC1(=CC=CC=C1))(C)(C)C","C[Si](C)(C)CNC1C=CC=CC=1","InChI=1S/C10H17NSi/c1-12(2,3)9-11-10-7-5-4-6-8-10/h4-8,11H,9H2,1-3H3","VIAPGVLSJAGIPY-UHFFFAOYSA-N","?",,"potentiometric","b/thermodynamic","?","basic",5.3
"11121","N(C1(=CC=CC=C1))C2(CCCC2)","C1CCCC1NC1C=CC=CC=1","InChI=1S/C11H15N/c1-2-6-10(7-3-1)12-11-8-4-5-9-11/h1-3,6-7,11-12H,4-5,8-9H2","WEULTTCXSOUGPM-UHFFFAOYSA-N","?",,,"a/apparent","?","basic",5.3
"16338","N=2(N1(C(=NC(=C1)C)C(C)=CC=2C3(=CC=CC=C3)))","CC1=CN2N=C(C=C(C)C2=N1)C1C=CC=CC=1","InChI=1S/C14H13N3/c1-10-8-13(12-6-4-3-5-7-12)16-17-9-11(2)15-14(10)17/h3-9H,1-2H3","RNNACWXWIINJBG-UHFFFAOYSA-N","?","25","mean from 2","a1/apparent","?","basic",5.3
"15640","N=3(C2(=C1(N=CC=CC1=C4(CCCCC4(=C2C=CC=3)))))","C1CCCC2=C3C=CC=NC3=C3N=CC=CC3=C21","InChI=1S/C16H14N2/c1-2-6-12-11(5-1)13-7-3-9-17-15(13)16-14(12)8-4-10-18-16/h3-4,7-10H,1-2,5-6H2","WQZGPOJDESVZKR-UHFFFAOYSA-N","?","25","potentiometric","a/apparent","?","basic",5.3
"15352","N=3(C=2(C1(=C(C=CC=C1C=CC=2)N(C=3)CCCC[NH+](C)C)))","CN(C)CCCCN1C=NC2=CC=CC3C=CC=C1C=32","InChI=1S/C17H21N3/c1-19(2)11-3-4-12-20-13-18-15-9-5-7-14-8-6-10-16(20)17(14)15/h5-10,13H,3-4,11-12H2,1-2H3","HVECLMBSHQHKMN-UHFFFAOYSA-N","?","25","spectrophotometric","a1/apparent","?","basic",5.3
"10863","SCCNC1(=CC=C(OC)C=C1)","COC1C=CC(=CC=1)NCCS","InChI=1S/C9H13NOS/c1-11-9-4-2-8(3-5-9)10-6-7-12/h2-5,10,12H,6-7H2,1H3","GMXROLILKSBBAG-UHFFFAOYSA-N","?","17","potentiometric","b/apparent","?","basic",5.3
"13304","N=2(C1(=C(C=CC=C1)N(C=2)CCCC))","CCCCN1C=NC2C=CC=CC1=2","InChI=1S/C11H14N2/c1-2-3-8-13-9-12-10-6-4-5-7-11(10)13/h4-7,9H,2-3,8H2,1H3","SHPPDRZENGVOOR-UHFFFAOYSA-N","?","25","potentiometric","a/apparent","?","basic",5.31
"15862","O3(CCN(CCNC2(=[N+](N=C(C1(=CC=CC=C1))C=C2)C))CC3)","C[N+]1N=C(C=CC=1NCCN1CCOCC1)C1C=CC=CC=1","InChI=1S/C17H22N4O/c1-20-17(18-9-10-21-11-13-22-14-12-21)8-7-16(19-20)15-5-3-2-4-6-15/h2-8H,9-14H2,1H3/p+1","QDCPCJQJYKATFO-UHFFFAOYSA-O","?","25","potentiometric","a1/apparent","?","basic",5.31