"Molecule name","OriginalSmiles","Canonical_QSARr","InChI_Code_QSARr","InChI Key_QSARr","Salt_Solvent (Concatenate)","temp","method","type","group","basicOrAcidic","pKa"
"17593","N1(CCC1)(C)","CN1CCC1","InChI=1S/C4H9N/c1-5-3-2-4-5/h2-4H2,1H3","WWYVZTLIFYLZFM-UHFFFAOYSA-N","?","25","potentiometric","a/thermodynamic","NH+","basic",10.4
"17688","N(C(CC)C)(C)C","CCC(C)N(C)C","InChI=1S/C6H15N/c1-5-6(2)7(3)4/h6H,5H2,1-4H3","USSPHSVODLAWSA-UHFFFAOYSA-N","?","20","conductometric","b/apparent","?","basic",10.4
"10422","NC(C(C)C)C(C)C","CC(C)C(N)C(C)C","InChI=1S/C7H17N/c1-5(2)7(8)6(3)4/h5-7H,8H2,1-4H3","FATQVQVMXNESGD-UHFFFAOYSA-N","?","17","potentiometric","a/thermodynamic","?","basic",10.4
"14131","N(N(C)C)=C(N)CCCCC","CCCCC/C(/N)=N/N(C)C","InChI=1S/C8H19N3/c1-4-5-6-7-8(9)10-11(2)3/h4-7H2,1-3H3,(H2,9,10)","AKUHJXIXPZVYKI-UHFFFAOYSA-N","?","25","potentiometric","a1/apparent","?","basic",10.4
"14130","N(N(C)C)=C(NCCCC)C","CCCCN/C(/C)=N/N(C)C","InChI=1S/C8H19N3/c1-5-6-7-9-8(2)10-11(3)4/h5-7H2,1-4H3,(H,9,10)","VTTJTTDSYHSPHU-UHFFFAOYSA-N","?","25","potentiometric","a1/apparent","?","basic",10.4
"15159","N=C(N(C1(=CC=CC=C1))C2(=CC=CC=C2))N","NC(=N)N(C1C=CC=CC=1)C1C=CC=CC=1","InChI=1S/C13H13N3/c14-13(15)16(11-7-3-1-4-8-11)12-9-5-2-6-10-12/h1-10H,(H3,14,15)","MFHNAXHSHOCFEC-UHFFFAOYSA-N","?","24.9",,"b1/apparent","NH(1+)","basic",10.42
"11744","OC1(C(N(C)C)CCCC1)","CN(C)C1CCCCC1O","InChI=1S/C8H17NO/c1-9(2)7-5-3-4-6-8(7)10/h7-8,10H,3-6H2,1-2H3","UFUVLAQFZSUWHR-UHFFFAOYSA-N","?","25","potentiometric","b/thermodynamic","?","basic",10.42
"14615","O=C(NCCCCCCN(C)C)C=N[O-]","CN(C)CCCCCCNC(=O)CN=O","InChI=1S/C10H21N3O2/c1-13(2)8-6-4-3-5-7-11-10(14)9-12-15/h3-9H2,1-2H3,(H,11,14)","BZYWDEDAIVYRRV-UHFFFAOYSA-N","?","25","potentiometric","a2/apparent","?","basic",10.43
"13016","N1(CCCCC1)(CCC)","CCCN1CCCCC1","InChI=1S/C8H17N/c1-2-6-9-7-4-3-5-8-9/h2-8H2,1H3","VTDIWMPYBAVEDY-UHFFFAOYSA-N","?","26.5","potentiometric","a/apparent","NH+","basic",10.45
"14424","[Si](C1(=CC=CC=C1))(CN)(C)C","C[Si](C)(CN)C1C=CC=CC=1","InChI=1S/C9H15NSi/c1-11(2,8-10)9-6-4-3-5-7-9/h3-7H,8,10H2,1-2H3","JWBRRESFNYKOLZ-UHFFFAOYSA-N","?",,"potentiometric","b/apparent","?","basic",10.45
"15138","OC(C1(=CC=CC=C1))C(N)C2(=CC=CC=C2)","NC(C(O)C1C=CC=CC=1)C1C=CC=CC=1","InChI=1S/C14H15NO/c15-13(11-7-3-1-4-8-11)14(16)12-9-5-2-6-10-12/h1-10,13-14,16H,15H2","GEJJWYZZKKKSEV-UHFFFAOYSA-N","?",,"potentiometric","b/apparent","?","basic",10.46
"11642","N(C1(CCC(C)CC1))(C)C","CC1CCC(CC1)N(C)C","InChI=1S/C9H19N/c1-8-4-6-9(7-5-8)10(2)3/h8-9H,4-7H2,1-3H3","XIHHDIPVRCDUOT-UHFFFAOYSA-N","?","25",,"a/apparent","?","basic",10.46
"12202","O=C([O-])CCCCCN1(CCCCC1)","OC(O)=CCCCCN1CCCCC1","InChI=1S/C11H21NO2/c13-11(14)7-3-1-4-8-12-9-5-2-6-10-12/h7,13-14H,1-6,8-10H2","ZNRVTNBZSBXISA-UHFFFAOYSA-N","?","25","mean from 2","a1/apparent","?","basic",10.47
"15203","O=C(NCCCCCCCN(C)C)C=N[O-]","CN(C)CCCCCCCNC(=O)CN=O","InChI=1S/C11H23N3O2/c1-14(2)9-7-5-3-4-6-8-12-11(15)10-13-16/h3-10H2,1-2H3,(H,12,15)","BEECQECZZGBPNK-UHFFFAOYSA-N","?","25","potentiometric","a2/apparent","?","basic",10.47
"11875","N(CCC)(CCC)CCC","CCCN(CCC)CCC","InChI=1S/C9H21N/c1-4-7-10(8-5-2)9-6-3/h4-9H2,1-3H3","YFTHZRPMJXBUME-UHFFFAOYSA-N","?","25","mean from 2","a/thermodynamic","?","basic",10.47
"17729","O=C([O-])CCCN","NCCC=C(O)O","InChI=1S/C4H9NO2/c5-3-1-2-4(6)7/h2,6-7H,1,3,5H2","FVLGBQWPJCHCCG-UHFFFAOYSA-N","?","25","mean from 6","a2/apparent","NH2","basic",10.48
"13027","N(C1(CCCCC1))(C)C","CN(C)C1CCCCC1","InChI=1S/C8H17N/c1-9(2)8-6-4-3-5-7-8/h8H,3-7H2,1-2H3","SVYKKECYCPFKGB-UHFFFAOYSA-N","?","25",,"a/apparent","?","basic",10.48
"17676","NCCCCC#C","C#CCCCCN","InChI=1S/C6H11N/c1-2-3-4-5-6-7/h1H,3-7H2","ONUHRYKLJYSRMY-UHFFFAOYSA-N","?","20","potentiometric","a1/apparent","?","basic",10.5
"12673","O=C([O-])CN(CC)CC","CCN(CC)C=C(O)O","InChI=1S/C6H13NO2/c1-3-7(4-2)5-6(8)9/h5,8-9H,3-4H2,1-2H3","XQUVBRCEPRDUBR-UHFFFAOYSA-N","?","24","mean from 2","a2/apparent","?","basic",10.5
"10743","NCCCCCC1(=CC=CC=C1)","NCCCCCC1C=CC=CC=1","InChI=1S/C11H17N/c12-10-6-2-5-9-11-7-3-1-4-8-11/h1,3-4,7-8H,2,5-6,9-10,12H2","CGNLNKFBSBFJHY-UHFFFAOYSA-N","?","25","mean from 3","a1/apparent","?","basic",10.51
"14401","N(C(CC1(CCCCC1))C)C","CC(CC1CCCCC1)NC","InChI=1S/C10H21N/c1-9(11-2)8-10-6-4-3-5-7-10/h9-11H,3-8H2,1-2H3","JCRIVQIOJSSCQD-UHFFFAOYSA-N","?","25","potentiometric","b/apparent","?","basic",10.52
"15638","O=C(NCCCCCCCCCN(C)C)C=N[O-]","CN(C)CCCCCCCCCNC(=O)CN=O","InChI=1S/C13H27N3O2/c1-16(2)11-9-7-5-3-4-6-8-10-14-13(17)12-15-18/h3-12H2,1-2H3,(H,14,17)","WBFOJWAZYZTZBZ-UHFFFAOYSA-N","?","25","potentiometric","a2/apparent","?","basic",10.52
"17739","OCCCCCN","NCCCCCO","InChI=1S/C5H13NO/c6-4-2-1-3-5-7/h7H,1-6H2","LQGKDMHENBFVRC-UHFFFAOYSA-N","?","20","potentiometric","a/apparent","?","basic",10.52
"10184","NCC1(CCCCC1)","NCC1CCCCC1","InChI=1S/C7H15N/c8-6-7-4-2-1-3-5-7/h7H,1-6,8H2","AVKNGPAMCBSNSO-UHFFFAOYSA-N","?","20","mean from 2","a1/apparent","?","basic",10.52
"12305","O=C([O-])CCC#CC#CCCCCN","NCCCCC#CC#CCC=C(O)O","InChI=1S/C11H15NO2/c12-10-8-6-4-2-1-3-5-7-9-11(13)14/h9,13-14H,4,6-8,10,12H2","SISJIIDIWYGFIX-UHFFFAOYSA-N","?","20","mean from 2","b1/apparent","?","basic",10.53
"16125","O=[N+]([O-])C1(=CC(=C([O-])C=C1)CN2(CCCCC2))","[O-][N+](=O)C1=CC(CN2CCCCC2)=C(O)C=C1","InChI=1S/C12H16N2O3/c15-12-5-4-11(14(16)17)8-10(12)9-13-6-2-1-3-7-13/h4-5,8,15H,1-3,6-7,9H2","VMLGUVWUUWNDNF-UHFFFAOYSA-N","?","25","spectrophotometric","a2/apparent","R2NH","basic",10.54
"17543","NC(CC)C","CCC(C)N","InChI=1S/C4H11N/c1-3-4(2)5/h4H,3,5H2,1-2H3","BHRZNVHARXXAHW-UHFFFAOYSA-N","?","25","potentiometric","a/thermodynamic","?","basic",10.56
"12056","OCC1(C2(CCN(C1)CC2))","OCC1CN2CCC1CC2","InChI=1S/C8H15NO/c10-6-8-5-9-3-1-7(8)2-4-9/h7-8,10H,1-6H2","GUAWHSHTXVVCLZ-UHFFFAOYSA-N","?","25",,"a1/apparent","?","basic",10.56
"10387","NCCCCCCN","NCCCCCCN","InChI=1S/C6H16N2/c7-5-3-1-2-4-6-8/h1-8H2","NAQMVNRVTILPCV-UHFFFAOYSA-N","?, ?","22","mean from 3","a1/apparent","NH2, NH%+&","basic",10.565000000000001
"14389","NC1(C(C(C)C)CCC(C1)C)","CC(C)C1CCC(C)CC1N","InChI=1S/C10H21N/c1-7(2)9-5-4-8(3)6-10(9)11/h7-10H,4-6,11H2,1-3H3","RBMUAGDCCJDQLE-UHFFFAOYSA-N","?, ?","18","potentiometric","a/thermodynamic","?, ?","basic",10.575
"14402","N(CCCC1(=CC=CC=C1))C","CNCCCC1C=CC=CC=1","InChI=1S/C10H15N/c1-11-9-5-8-10-6-3-2-4-7-10/h2-4,6-7,11H,5,8-9H2,1H3","MLHBZVFOTDJTPK-UHFFFAOYSA-N","?","25",,"a/apparent","?","basic",10.58
"17311","N1(CCCC1)(C)","CN1CCCC1","InChI=1S/C5H11N/c1-6-4-2-3-5-6/h2-5H2,1H3","AVFZOVWCLRSYKC-UHFFFAOYSA-N","?","25","mean from 2","a/thermodynamic","NH+","basic",10.58
"12736","N12(C(C=CC1)C(C)CC2)","CC1CCN2CC=CC21","InChI=1S/C8H13N/c1-7-4-6-9-5-2-3-8(7)9/h2-3,7-8H,4-6H2,1H3","CSKRFYUNLAVIQP-UHFFFAOYSA-N","?","25.5","potentiometric","a/apparent","NH%+&","basic",10.59
"12632","N(CC(C)C)CC(C)C","CC(C)CNCC(C)C","InChI=1S/C8H19N/c1-7(2)5-9-6-8(3)4/h7-9H,5-6H2,1-4H3","NJBCRXCAPCODGX-UHFFFAOYSA-N","?","25","potentiometric","a1/apparent","NH3(1+)","basic",10.59
"13452","N(N)=C1(C2(=C(N(C)C=C1)C=CC=C2))","CN1C=CC(N=N)C2C=CC=CC1=2","InChI=1S/C10H11N3/c1-13-7-6-9(12-11)8-4-2-3-5-10(8)13/h2-7,9,11H,1H3","BVHWSZSJDVKZBN-UHFFFAOYSA-N","?","20","potentiometric","a2/apparent","?","basic",10.6
"12302","O=C([O-])CCNCCCCCCCC","CCCCCCCCNCC=C(O)O","InChI=1S/C11H23NO2/c1-2-3-4-5-6-7-9-12-10-8-11(13)14/h8,12-14H,2-7,9-10H2,1H3","XDAMSIFQLMOKPC-UHFFFAOYSA-N","?","30","potentiometric","a2/apparent","?","basic",10.6
"16650","S(C2(=CC=C(NC1(=NC(=NC(N1)CCC)N))C=C2))C","CCCC1NC(NC2C=CC(=CC=2)SC)=NC(N)=N1","InChI=1S/C13H19N5S/c1-3-4-11-16-12(14)18-13(17-11)15-9-5-7-10(19-2)8-6-9/h5-8,11H,3-4H2,1-2H3,(H4,14,15,16,17,18)","NHGOHUFRVQBNJJ-UHFFFAOYSA-N","?",,,"a/apparent","?","basic",10.6
"15194","O=C([O-])CCNCCCCCCCCCC","CCCCCCCCCCNCC=C(O)O","InChI=1S/C13H27NO2/c1-2-3-4-5-6-7-8-9-11-14-12-10-13(15)16/h10,14-16H,2-9,11-12H2,1H3","YZZAXVGCLPVECA-UHFFFAOYSA-N","?","30","potentiometric","a2/apparent","?","basic",10.6
"15630","NCCCCCCCCCCCCCCCCC","CCCCCCCCCCCCCCCCCN","InChI=1S/C17H37N/c1-2-3-4-5-6-7-8-9-10-11-12-13-14-15-16-17-18/h2-18H2,1H3","KAJZYANLDWUIES-UHFFFAOYSA-N","?","25","conductometric","b/apparent","?","basic",10.6
"15850","ClC2(=C(Cl)C(C(=O)C1(=CC(=C([O-])C=C1)CN))=CC=C2OCC(=O)OCC)","CCOC(O)=COC1C=CC(C(=O)C2=CC(CN)=C(O)C=C2)=C(Cl)C=1Cl","InChI=1S/C18H17Cl2NO5/c1-2-25-15(23)9-26-14-6-4-12(16(19)17(14)20)18(24)10-3-5-13(22)11(7-10)8-21/h3-7,9,22-23H,2,8,21H2,1H3","ZXUDNQBHGDKVSO-UHFFFAOYSA-N","?","25","spectrophotometric","a2/apparent","NH3","basic",10.6
"16671","NCCCCCCCCCCCCCCCCCC","CCCCCCCCCCCCCCCCCCN","InChI=1S/C18H39N/c1-2-3-4-5-6-7-8-9-10-11-12-13-14-15-16-17-18-19/h2-19H2,1H3","REYJJPSVUYRZGE-UHFFFAOYSA-N","?","25","conductometric","b/apparent","?","basic",10.6
"10471","O=C([O-])CCNCC","CCNCC=C(O)O","InChI=1S/C5H11NO2/c1-2-6-4-3-5(7)8/h3,6-8H,2,4H2,1H3","LNBRZHDHZVEDCU-UHFFFAOYSA-N","?","30","potentiometric","a2/apparent","?","basic",10.6
"10437","[Br]CCCCCCN","NCCCCCCBr","InChI=1S/C6H14BrN/c7-5-3-1-2-4-6-8/h1-6,8H2","JKLWLHQDZJWQCR-UHFFFAOYSA-N","?","21","potentiometric","a/apparent","?","basic",10.6
"12699","N(N(CC)CC)=C(N)C","C/C(/N)=N\N(CC)CC","InChI=1S/C6H15N3/c1-4-9(5-2)8-6(3)7/h4-5H2,1-3H3,(H2,7,8)","GFHMGODDVVYYMF-UHFFFAOYSA-N","?","25","potentiometric","a1/apparent","?","basic",10.6
"11909","O=C([O-])CCNCCCC","CCCCNCC=C(O)O","InChI=1S/C7H15NO2/c1-2-3-5-8-6-4-7(9)10/h4,8-10H,2-3,5-6H2,1H3","WTUDECLQZWIBMK-UHFFFAOYSA-N","?","30","potentiometric","a2/apparent","?","basic",10.6
"11340","O=C([O-])CCNCCCCCC","CCCCCCNCC=C(O)O","InChI=1S/C9H19NO2/c1-2-3-4-5-7-10-8-6-9(11)12/h6,10-12H,2-5,7-8H2,1H3","IHTJNGYISSVULE-UHFFFAOYSA-N","?","30","potentiometric","a2/apparent","?","basic",10.6
"13543","O=C([O-])C1([NH+]=C(N)NC1C(O)CN)","NC1NC(C(O)CN)C(N=1)=C(O)O","InChI=1S/C6H12N4O3/c7-1-2(11)3-4(5(12)13)10-6(8)9-3/h2-3,11-13H,1,7H2,(H3,8,9,10)","LIORDZDUPBSJKD-UHFFFAOYSA-N","?, ?","17","potentiometric","a2/apparent","?, ?","basic",10.600000000000001
"16040","NCCCCCCCCCCCCCCCC","CCCCCCCCCCCCCCCCN","InChI=1S/C16H35N/c1-2-3-4-5-6-7-8-9-10-11-12-13-14-15-16-17/h2-17H2,1H3","FJLUATLTXUNBOT-UHFFFAOYSA-N","?","25","conductometric","b/apparent","?","basic",10.61
"10189","NC1(C(CCCC1)C)","CC1CCCCC1N","InChI=1S/C7H15N/c1-6-4-2-3-5-7(6)8/h6-7H,2-5,8H2,1H3","FEUISMYEFPANSS-UHFFFAOYSA-N","?, ?","20","potentiometric","a/thermodynamic","?, ?","basic",10.61
"14670","O=C([O-])C1(NCC(C1CC(=O)[O-])C(C)C)","CC(C)C1CN=C(C1C=C(O)O)C(O)O","InChI=1S/C10H17NO4/c1-5(2)7-4-11-9(10(14)15)6(7)3-8(12)13/h3,5-7,10,12-15H,4H2,1-2H3","BQBLNUADMYTMEZ-UHFFFAOYSA-N","?",,,"a3/apparent","?","basic",10.62
"10490","OCCCCCCN","NCCCCCCO","InChI=1S/C6H15NO/c7-5-3-1-2-4-6-8/h8H,1-7H2","SUTWPJHCRAITLU-UHFFFAOYSA-N","?","20","potentiometric","a/apparent","?","basic",10.62
"10335","N12(C(CC(C1)CC2)C)","CC1CC2CCN1C2","InChI=1S/C7H13N/c1-6-4-7-2-3-8(6)5-7/h6-7H,2-5H2,1H3","RSIYPQRDJQGLFW-UHFFFAOYSA-N","?","25","potentiometric","a/apparent","NH%+&","basic",10.62
"11318","NCCCCCCCCCCC","CCCCCCCCCCCN","InChI=1S/C11H25N/c1-2-3-4-5-6-7-8-9-10-11-12/h2-12H2,1H3","QFKMMXYLAPZKIB-UHFFFAOYSA-N","?","25","conductometric","b/apparent","?","basic",10.63
"12294","NCCCCCCCCCCCCC","CCCCCCCCCCCCCN","InChI=1S/C13H29N/c1-2-3-4-5-6-7-8-9-10-11-12-13-14/h2-14H2,1H3","ABVVEAHYODGCLZ-UHFFFAOYSA-N","?","25","conductometric","b/apparent","?","basic",10.63
"13076","O=C([O-])C1(NCCCC1)","OC(O)C1CCCCN=1","InChI=1S/C6H11NO2/c8-6(9)5-3-1-2-4-7-5/h6,8-9H,1-4H2","GCXSXZOWOFVXOR-UHFFFAOYSA-N","?","29","mean from 2","a2/apparent","?","basic",10.63
"14142","O=C(NCCCNC)C=N[O-]","CNCCCNC(=O)CN=O","InChI=1S/C6H13N3O2/c1-7-3-2-4-8-6(10)5-9-11/h7H,2-5H2,1H3,(H,8,10)","FSOPVWGEOVMQDM-UHFFFAOYSA-N","?","25","potentiometric","a2/apparent","?","basic",10.63
"17255","NC(C)C","CC(C)N","InChI=1S/C3H9N/c1-3(2)4/h3H,4H2,1-2H3","JJWLVOIRVHMVIS-UHFFFAOYSA-N","?","23","mean from 4","b1/apparent","NH%+&","basic",10.64
"10421","NCCCCCC#C","C#CCCCCCN","InChI=1S/C7H13N/c1-2-3-4-5-6-7-8/h1H,3-8H2","CTJWRSXGDBETPH-UHFFFAOYSA-N","?","20","potentiometric","a1/apparent","?","basic",10.64
"12312","[Si](CCC(=NN(CC)CC)N)(C)(C)C","C[Si](C)(C)CC/C(/N)=N/N(CC)CC","InChI=1S/C10H25N3Si/c1-6-13(7-2)12-10(11)8-9-14(3,4)5/h6-9H2,1-5H3,(H2,11,12)","IFYDWLHHXHXIIL-UHFFFAOYSA-N","?","25","potentiometric","a1/apparent","?","basic",10.65
"15300","N2(C1(=C(C=CC=C1)CCC3(=C2C=CC=C3)))(CCCNC)","CNCCCN1C2C=CC=CC=2CCC2C=CC=CC1=2","InChI=1S/C18H22N2/c1-19-13-6-14-20-17-9-4-2-7-15(17)11-12-16-8-3-5-10-18(16)20/h2-5,7-10,19H,6,11-14H2,1H3","HCYAFALTSJYZDH-UHFFFAOYSA-N","?","25","potentiometric","a1/apparent","?","basic",10.65
"17252","NCCC","CCCN","InChI=1S/C3H9N/c1-2-3-4/h2-4H2,1H3","WGYKZJWCGVVSQN-UHFFFAOYSA-N","?","24","mean from 6","a1/apparent","NH3(1+)","basic",10.65
"17417","NCCCCC","CCCCCN","InChI=1S/C5H13N/c1-2-3-4-5-6/h2-6H2,1H3","DPBLXKKOBLCELK-UHFFFAOYSA-N","?","25","mean from 6","a1/apparent","?","basic",10.65
"12231","[Br]C1(=CC(=C([O-])C=C1)CN(CC)CC)","CCN(CC1C=C(Br)C=CC=1O)CC","InChI=1S/C11H16BrNO/c1-3-13(4-2)8-9-7-10(12)5-6-11(9)14/h5-7,14H,3-4,8H2,1-2H3","KHSBXTXLUWLXRT-UHFFFAOYSA-N","?","25","mean from 3","a1/apparent","?","basic",10.67
"17846","NC1(CCCCC1)","NC1CCCCC1","InChI=1S/C6H13N/c7-6-4-2-1-3-5-6/h6H,1-5,7H2","PAFZNILMFXTMIY-UHFFFAOYSA-N","?","19","mean from 5","a1/apparent","N+ of NH","basic",10.67
"17675","NCCCCCC","CCCCCCN","InChI=1S/C6H15N/c1-2-3-4-5-6-7/h2-7H2,1H3","BMVXCPBXGZKUPN-UHFFFAOYSA-N","?","25","mean from 4","a1/apparent","?","basic",10.68
"13018","N1(C(CCCC1)C)(CC)","CCN1CCCCC1C","InChI=1S/C8H17N/c1-3-9-7-5-4-6-8(9)2/h8H,3-7H2,1-2H3","LPCWDBCEHWHJGX-UHFFFAOYSA-N","?","25","mean from 2","a/apparent","NH+","basic",10.68
"13881","[O-]C2(=NC=1(C(=CC=CC=1)C=N2))","OC1=NC2=CC=CC=C2C=N1","InChI=1S/C8H6N2O/c11-8-9-5-6-3-1-2-4-7(6)10-8/h1-5H,(H,9,10,11)","AVRPFRMDMNDIDH-UHFFFAOYSA-N","?","20","spectrophotometric","a2/apparent","?","basic",10.69
"13909","N2(C1(CCCCC1))(CCCC2)","C1CCCCC1N1CCCC1","InChI=1S/C10H19N/c1-2-6-10(7-3-1)11-8-4-5-9-11/h10H,1-9H2","ULBBXWVIXXPSOD-UHFFFAOYSA-N","?",,"potentiometric","b/apparent","?","basic",10.7
"14608","O=C([O-])CCC#CC#CCCCCCN","NCCCCCC#CC#CCC=C(O)O","InChI=1S/C12H17NO2/c13-11-9-7-5-3-1-2-4-6-8-10-12(14)15/h10,14-15H,3,5,7-9,11,13H2","HAMIRWFGOJJEGO-UHFFFAOYSA-N","?","20","mean from 2","b1/apparent","?","basic",10.7
"13736","N12(CC3(CC(C1)(CC(C2)(C)C3)C)(C))","CC12CN3CC(C)(C1)CC(C)(C3)C2","InChI=1S/C12H21N/c1-10-4-11(2)6-12(3,5-10)9-13(7-10)8-11/h4-9H2,1-3H3","MQSIJJSITIEPST-UHFFFAOYSA-N","?","25","spectrophotometric","a1/apparent","=NH-","basic",10.7
"17540","NCCCC","CCCCN","InChI=1S/C4H11N/c1-2-3-4-5/h2-5H2,1H3","HQABUPZFAYXKJW-UHFFFAOYSA-N","?","23","mean from 14","b1/apparent","NH%+&","basic",10.7
"11564","O(C1(=NC([O-])=NC=C1))CC","CCOC1C=CN=C(O)N=1","InChI=1S/C6H8N2O2/c1-2-10-5-3-4-7-6(9)8-5/h3-4H,2H2,1H3,(H,7,8,9)","NPWARRDBZOQWSE-UHFFFAOYSA-N","?",,"spectrophotometric","a/apparent","?","basic",10.7
"13568","O=C(C(=N[O-])CN1(CCCCC1))C","C=C(O)C(CN1CCCCC1)N=O","InChI=1S/C9H16N2O2/c1-8(12)9(10-13)7-11-5-3-2-4-6-11/h9,12H,1-7H2","OSRZKSKTSGFSNA-UHFFFAOYSA-N","?",,"potentiometric","a2/apparent","NH+","basic",10.7
"12451","O1(C(=NCCC1)N(C2(=CC=CC=C2))C)","CN(C1=NCCCO1)C1C=CC=CC=1","InChI=1S/C11H14N2O/c1-13(10-6-3-2-4-7-10)11-12-8-5-9-14-11/h2-4,6-7H,5,8-9H2,1H3","YMPBMSPVSUIPSL-UHFFFAOYSA-N","?","20",,"a1/apparent","NH(+)","basic",10.71
"10869","[Br]C1(=CC(=C([O-])C=C1)CN(C)C)","CN(C)CC1C=C(Br)C=CC=1O","InChI=1S/C9H12BrNO/c1-11(2)6-7-5-8(10)3-4-9(7)12/h3-5,12H,6H2,1-2H3","VKWZAKOXYMCAER-UHFFFAOYSA-N","?","25","potentiometric","a1/thermodynamic","OH","basic",10.71
"11104","[O-]C=2(C1(=NC=CC(=C1C=CC=2)N))","NC1C=CN=C2C(O)=CC=CC2=1","InChI=1S/C9H8N2O/c10-7-4-5-11-9-6(7)2-1-3-8(9)12/h1-5,12H,(H2,10,11)","BSAWDWUYBRFYFY-UHFFFAOYSA-N","?","20",,"a2/apparent","?","basic",10.71
"10254","O=C([O-])C1(CNCC1)","OC(O)=C1CNCC1","InChI=1S/C5H9NO2/c7-5(8)4-1-2-6-3-4/h6-8H,1-3H2","QDEXIVDHHFCAKJ-UHFFFAOYSA-N","?",,,"a2/apparent","?","basic",10.72
"17262","[S-]CCN","NCCS","InChI=1S/C2H7NS/c3-1-2-4/h4H,1-3H2","UFULAYFCSOUIOV-UHFFFAOYSA-N","?","26","mean from 4","a2/apparent","?","basic",10.73
"17544","NC(C)(C)C","CC(C)(C)N","InChI=1S/C4H11N/c1-4(2,3)5/h5H2,1-3H3","YBRBMKDOPFTVDT-UHFFFAOYSA-N","?","19","mean from 4","b1/thermodynamic","?","basic",10.73
"17697","[Si](CN)(CC)(C)C","CC[Si](C)(C)CN","InChI=1S/C5H15NSi/c1-4-7(2,3)5-6/h4-6H2,1-3H3","ZRJVQUXSSYTPGU-UHFFFAOYSA-N","?","25","mean from 2","b1/apparent","?","basic",10.73
"12629","NCCCCCCC#C","C#CCCCCCCN","InChI=1S/C8H15N/c1-2-3-4-5-6-7-8-9/h1H,3-9H2","REQFTYFGWVLWOQ-UHFFFAOYSA-N","?","20","potentiometric","a1/apparent","?","basic",10.74
"13201","[Si](O[Si](CCN)(C)C)(CCN)(C)C","C[Si](C)(CCN)O[Si](C)(C)CCN","InChI=1S/C8H24N2OSi2/c1-12(2,7-5-9)11-13(3,4)8-6-10/h5-10H2,1-4H3","PXXUHFVEJQHLSK-UHFFFAOYSA-N","?",,"potentiometric","b/apparent","?","basic",10.74
"13682","[O-]C1(=CC=C(CCNC(C)C)C=C1)","CC(C)NCCC1C=CC(O)=CC=1","InChI=1S/C11H17NO/c1-9(2)12-8-7-10-3-5-11(13)6-4-10/h3-6,9,12-13H,7-8H2,1-2H3","LUVHMKBYLSDWQF-UHFFFAOYSA-N","?","20","potentiometric","a2/apparent","?","basic",10.75
"10312","N=1(C(=N)N(C=CC=1)C)","CN1C=CC=NC1=N","InChI=1S/C5H7N3/c1-8-4-2-3-7-5(8)6/h2-4,6H,1H3","PTCUWHZWXMQWHX-UHFFFAOYSA-N","?","20","potentiometric","a/apparent","?","basic",10.75
"10436","[Si](CCCN)(C)(C)C","C[Si](C)(C)CCCN","InChI=1S/C6H17NSi/c1-8(2,3)6-4-5-7/h4-7H2,1-3H3","PFRLCKFENIXNMM-UHFFFAOYSA-N","?","25","potentiometric","a/apparent","?","basic",10.75
"10749","N(CCCCC1(=CC=CC=C1))C","CNCCCCC1C=CC=CC=1","InChI=1S/C11H17N/c1-12-10-6-5-9-11-7-3-2-4-8-11/h2-4,7-8,12H,5-6,9-10H2,1H3","TXYKOQZEJZWJEN-UHFFFAOYSA-N","?","25","potentiometric","a/apparent","?","basic",10.76
"12628","NCCCCCCCC","CCCCCCCCN","InChI=1S/C8H19N/c1-2-3-4-5-6-7-8-9/h2-9H2,1H3","IOQPZZOEVPZRBK-UHFFFAOYSA-N","?","22","mean from 4","a1/apparent","?","basic",10.76
"11632","N1(C(CCCC1C)(C)C)(C)","CC1CCCC(C)(C)N1C","InChI=1S/C9H19N/c1-8-6-5-7-9(2,3)10(8)4/h8H,5-7H2,1-4H3","HVJKLCOHVAENRQ-UHFFFAOYSA-N","?","30","potentiometric","a/apparent","NH+","basic",10.76
"14731","NC","CN","InChI=1S/CH5N/c1-2/h2H2,1H3","BAVYZALUXZFZLV-UHFFFAOYSA-N","?","24","mean from 10","b1/apparent","NH%+&","basic",10.76
"17441","[S-]CCN(C)C","CN(C)CCS","InChI=1S/C4H11NS/c1-5(2)3-4-6/h6H,3-4H2,1-2H3","DENMGZODXQRYAR-UHFFFAOYSA-N","?","23","mean from 3","a2/apparent","?","basic",10.78
"10467","O=C([O-])CCCNC","CNCCC=C(O)O","InChI=1S/C5H11NO2/c1-6-4-2-3-5(7)8/h3,6-8H,2,4H2,1H3","UOIPIPHHEAFLIV-UHFFFAOYSA-N","?","24.9","spectrophotometric","a2/apparent","N-H","basic",10.78
"10475","O=C([O-])CCCCN","NCCCC=C(O)O","InChI=1S/C5H11NO2/c6-4-2-1-3-5(7)8/h3,7-8H,1-2,4,6H2","GRKOSGNSRORRHE-UHFFFAOYSA-N","?","23","mean from 3","a2/apparent","NH2","basic",10.78
"10191","N1(CCCCCCC1)","C1CCCCCCN1","InChI=1S/C7H15N/c1-2-4-6-8-7-5-3-1/h8H,1-7H2","QXNDZONIWRINJR-UHFFFAOYSA-N","?","25","potentiometric","a1/apparent","NH3(1+)","basic",10.78
"12286","NCCCCCCCCCCCCN","NCCCCCCCCCCCCN","InChI=1S/C12H28N2/c13-11-9-7-5-3-1-2-4-6-8-10-12-14/h1-14H2","QFTYSVGGYOXFRQ-UHFFFAOYSA-N","?","20","NMR","a1/apparent","NH2","basic",10.79
"11812","N=C(NC1(=CC=CC=C1))N","NC(=N)NC1C=CC=CC=1","InChI=1S/C7H9N3/c8-7(9)10-6-4-2-1-3-5-6/h1-5H,(H4,8,9,10)","QRJZGVVKGFIGLI-UHFFFAOYSA-N","?","25","mean from 3","b/thermodynamic","?","basic",10.79
"13904","N2(C(C1(CCCCC1))CCC2)","C1CCCCC1C1CCCN1","InChI=1S/C10H19N/c1-2-5-9(6-3-1)10-7-4-8-11-10/h9-11H,1-8H2","KRDXTHSSNCTAGY-UHFFFAOYSA-N","?","25","potentiometric","a/apparent","?","basic",10.8
"14098","N(C(C=C)(C)C)C(CC)(C)C","CCC(C)(C)NC(C)(C)C=C","InChI=1S/C10H21N/c1-7-9(3,4)11-10(5,6)8-2/h7,11H,1,8H2,2-6H3","BMDISKTZXDELHS-UHFFFAOYSA-N","?","25","potentiometric","a1/apparent","?","basic",10.8
"17070","O=C([O-])C1(N2(C(C(C)CC1)CCC(C2)C))","CC1CCC(=C(O)O)N2CC(C)CCC21","InChI=1S/C12H21NO2/c1-8-3-5-10-9(2)4-6-11(12(14)15)13(10)7-8/h8-10,14-15H,3-7H2,1-2H3","CZDPAYWUBDBFSY-UHFFFAOYSA-N","?",,,"a2/apparent","?","basic",10.8
"17423","N(CCCC)C","CCCCNC","InChI=1S/C5H13N/c1-3-4-5-6-2/h6H,3-5H2,1-2H3","QCOGKXLOEWLIDC-UHFFFAOYSA-N","?","25","potentiometric","a1/apparent","?","basic",10.8