"Molecule name","OriginalSmiles","Canonical_QSARr","InChI_Code_QSARr","InChI Key_QSARr","Salt_Solvent (Concatenate)","temp","method","type","group","basicOrAcidic","pKa"
"15326","S3(C(C(C=1(SC=CC=1))=CC(N2(CCCCC2))C)=CC=C3)","CC(C=C(C1=CC=CS1)C1=CC=CS1)N1CCCCC1","InChI=1S/C17H21NS2/c1-14(18-9-3-2-4-10-18)13-15(16-7-5-11-19-16)17-8-6-12-20-17/h5-8,11-14H,2-4,9-10H2,1H3","FQRWJLVMJCKSME-UHFFFAOYSA-N","?","25","potentiometric","a/apparent","NH%+&","basic",8.46
"10656","ClC1(=CC=C(N=CN(C)C)C=C1)","CN(C)C=NC1C=CC(Cl)=CC=1","InChI=1S/C9H11ClN2/c1-12(2)7-11-9-5-3-8(10)4-6-9/h3-7H,1-2H3","ZPTXBCJETBDOAT-UHFFFAOYSA-N","?","25","potentiometric","a1/apparent","N=C-H","basic",8.46
"12309","N(CCCN(C)C)(CCCN(C)C)C","CN(CCCN(C)C)CCCN(C)C","InChI=1S/C11H27N3/c1-12(2)8-6-10-14(5)11-7-9-13(3)4/h6-11H2,1-5H3","SKCNNQDRNPQEFU-UHFFFAOYSA-N","?, ?, ?","22","potentiometric","a3/apparent","?, ?, ?","basic",8.466666666666665
"10926","S=C1(NC(CC(N)C(=O)[O-])=CN1)","N=C(CC1CNC(=S)N=1)C(O)O","InChI=1S/C6H9N3O2S/c7-4(5(10)11)1-3-2-8-6(12)9-3/h5,7,10-11H,1-2H2,(H,8,12)","FUUVADBPZWYQEE-UHFFFAOYSA-N","?","25","potentiometric","a2/apparent","?","basic",8.47
"15776","N=1(C=2(C(C(NCCN(CC)CC)=CC=1)=CC=CC=2))","CCN(CCNC1=CC=NC2=CC=CC=C21)CC","InChI=1S/C15H21N3/c1-3-18(4-2)12-11-17-15-9-10-16-14-8-6-5-7-13(14)15/h5-10H,3-4,11-12H2,1-2H3,(H,16,17)","DPCDGNQEAIAECL-UHFFFAOYSA-N","?, ?","25","potentiometric","a1/apparent","?, ?","basic",8.475
"17432","SC(CN)(C)C","CC(C)(S)CN","InChI=1S/C4H11NS/c1-4(2,6)3-5/h6H,3,5H2,1-2H3","MBPAUMHSIFBANF-UHFFFAOYSA-N","?","22","potentiometric","a1/apparent","?","basic",8.48
"17518","NC(CN)C","CC(N)CN","InChI=1S/C3H10N2/c1-3(5)2-4/h3H,2,4-5H2,1H3","AOHJOMMDDJHIJH-UHFFFAOYSA-N","?, ?","27","mean from 5","a1/apparent","?, NH3(1+)","basic",8.485
"16705","O(C3(=C(C=1(NC=2(C=CN=CC=2(C=1))))C=CC(=C3)OC))C","COC1=CC(OC)=C(C=C1)C1=CC2C=NC=CC=2N1","InChI=1S/C15H14N2O2/c1-18-11-3-4-12(15(8-11)19-2)14-7-10-9-16-6-5-13(10)17-14/h3-9,17H,1-2H3","OBNRFFBLASQGKQ-UHFFFAOYSA-N","?","25","mean from 2","a1/apparent","?","basic",8.49
"14320","O=C([O-])C=1(N=CNC=1C(=O)[O-])","OC(=O)C1NC=NC=1C(O)=O","InChI=1S/C5H4N2O4/c8-4(9)2-3(5(10)11)7-1-6-2/h1H,(H,6,7)(H,8,9)(H,10,11)","ZEVWQFWTGHFIDH-UHFFFAOYSA-N","?","25","mean from 2","a2/apparent","?","basic",8.49
"10739","O=C([O-])C1(N(C(=O)CN)CCC1)","N=CC(O)N1CCCC1=C(O)O","InChI=1S/C7H12N2O3/c8-4-6(10)9-3-1-2-5(9)7(11)12/h4,6,8,10-12H,1-3H2","RPBNEHXMGHRUCX-UHFFFAOYSA-N","?","25","potentiometric","b1/apparent","?","basic",8.49
"16588","O=[N+]([O-])C2(=CC=C(OC(=O)C1(C(N)CCCC1))C=C2)","NC1CCCCC1=C(O)OC1C=CC(=CC=1)[N+]([O-])=O","InChI=1S/C13H16N2O4/c14-12-4-2-1-3-11(12)13(16)19-10-7-5-9(6-8-10)15(17)18/h5-8,12,16H,1-4,14H2","BBSMSKSOUBNZBL-UHFFFAOYSA-N","?, ?","30","spectrophotometric","a1/apparent","?, ?","basic",8.495000000000001
"14607","OC(CN(CC(O)C)CCCCCC)C","CCCCCCN(CC(C)O)CC(C)O","InChI=1S/C12H27NO2/c1-4-5-6-7-8-13(9-11(2)14)10-12(3)15/h11-12,14-15H,4-10H2,1-3H3","CFGWPTDWIBCXMS-UHFFFAOYSA-N","?",,"potentiometric","a/apparent","prot.","basic",8.5
"16044","O=C(OC(CN(CC)CC)(CC=C)C)CCC","CCC=C(O)OC(C)(CN(CC)CC)CC=C","InChI=1S/C14H27NO2/c1-6-10-13(16)17-14(5,11-7-2)12-15(8-3)9-4/h7,10,16H,2,6,8-9,11-12H2,1,3-5H3","KTKLBVFWSCLGMM-UHFFFAOYSA-N","?","25","potentiometric","a1/apparent","?","basic",8.5
"15751","O=C2(C=CC(=CC=C1(C=CN(CCC)C=C1))C=C2)","CCCN1C=CC(C=C1)=CC=C1C=CC(=O)C=C1","InChI=1S/C16H17NO/c1-2-11-17-12-9-15(10-13-17)4-3-14-5-7-16(18)8-6-14/h3-10,12-13H,2,11H2,1H3","BGRNUOHPGWOCOI-UHFFFAOYSA-N","?","25","spectrophotometric","a1/apparent","?","basic",8.5
"16858","OC3(C26(C1(=C(C=CC=C1)N(C2C4(CC5(C3C(N4CC5=CC)C6)))C)))","CN1C2C3CC4C5C(O)C2(CC5N3CC4=CC)C2C=CC=CC1=2","InChI=1S/C20H24N2O/c1-3-11-10-22-15-8-12(11)17-16(22)9-20(19(17)23)13-6-4-5-7-14(13)21(2)18(15)20/h3-7,12,15-19,23H,8-10H2,1-2H3","VBEQZFNVRMPLSM-UHFFFAOYSA-N","?",,"potentiometric","a/apparent","?","basic",8.5
"17261","[Br]CCN","NCCBr","InChI=1S/C2H6BrN/c3-1-2-4/h1-2,4H2","IZQAUUVBKYXMET-UHFFFAOYSA-N","?","22","mean from 3","a1/apparent","?","basic",8.5
"10097","N1(=C(NC=C1C)CC)","CC1=CNC(CC)=N1","InChI=1S/C6H10N2/c1-3-6-7-4-5(2)8-6/h4H,3H2,1-2H3,(H,7,8)","ULKLGIFJWFIQFF-UHFFFAOYSA-N","?","25","potentiometric","a1/apparent","?","basic",8.5
"12271","O=[N+]([O-])C1(=CC=C(NC(=O)CN)C=C1)","N=CC(O)NC1C=CC(=CC=1)[N+]([O-])=O","InChI=1S/C8H9N3O3/c9-5-8(12)10-6-1-3-7(4-2-6)11(13)14/h1-5,8-10,12H","YFTMPZICWMPMOF-UHFFFAOYSA-N","?","25","potentiometric","a1/apparent","?","basic",8.5
"13349","O1(C(=NCC1)N(C2(=CC=CC=C2))C)","CN(C1=NCCO1)C1C=CC=CC=1","InChI=1S/C10H12N2O/c1-12(10-11-7-8-13-10)9-5-3-2-4-6-9/h2-6H,7-8H2,1H3","AKDAEUSQQFHVDL-UHFFFAOYSA-N","?","20",,"a1/apparent","NH(+)","basic",8.51
"13667","OC1(=C(C=C(CC)C=C1)CN(C)C)","CCC1=CC(CN(C)C)=C(O)C=C1","InChI=1S/C11H17NO/c1-4-9-5-6-11(13)10(7-9)8-12(2)3/h5-7,13H,4,8H2,1-3H3","FSBZQLGCTYKSMP-UHFFFAOYSA-N","?","25","potentiometric","a1/apparent","OH","basic",8.51
"15971","FC2(=CC=C(C(O)CNC(CC1(=C(C(C)(C)CC1)C))C)C=C2)","CC1=C(CC(C)NCC(O)C2C=CC(F)=CC=2)CCC1(C)C","InChI=1S/C19H28FNO/c1-13(11-16-9-10-19(3,4)14(16)2)21-12-18(22)15-5-7-17(20)8-6-15/h5-8,13,18,21-22H,9-12H2,1-4H3","LYMILKZZYLNYJS-UHFFFAOYSA-N","?",,"potentiometric","a1/apparent","NH2(+)","basic",8.51
"10450","OCCN(CCO)C","CN(CCO)CCO","InChI=1S/C5H13NO2/c1-6(2-4-7)3-5-8/h7-8H,2-5H2,1H3","CRVGTESFCCXCTH-UHFFFAOYSA-N","?","93","mean from 4","a1/apparent","NH3(1+)","basic",8.51
"16977","O=C1(N(C(=O)C=2(C([O-])=CN=NC=2(N1C)))C)","CN1C(=O)C2=C(O)C=NN=C2N(C)C1=O","InChI=1S/C8H8N4O3/c1-11-6-5(4(13)3-9-10-6)7(14)12(2)8(11)15/h3H,1-2H3,(H,10,13)","XZBCLRNUZOZHFW-UHFFFAOYSA-N","?","20","potentiometric","a/apparent","?","basic",8.51
"15465","O=C([O-])C1(CN(C2(CC4(=CNC=3(C4(=C(C2(C1))C=CC=3)))))C)","CN1CC(CC2C1CC1=CNC3=CC=CC2=C31)=C(O)O","InChI=1S/C16H18N2O2/c1-18-8-10(16(19)20)5-12-11-3-2-4-13-15(11)9(7-17-13)6-14(12)18/h2-4,7,12,14,17,19-20H,5-6,8H2,1H3","XOSHWUZSFWUCAJ-UHFFFAOYSA-N","?, ?","22","mean from 3","a2/apparent","?, ?","basic",8.52
"16584","N(C1(=CC=CC=C1))=CC=CC=CNC2(=CC=CC=C2)","C(C=NC1C=CC=CC=1)C=CC=NC1C=CC=CC=1","InChI=1S/C17H16N2/c1-4-10-16(11-5-1)18-14-8-3-9-15-19-17-12-6-2-7-13-17/h1-8,10-15H,9H2","OYTZUGLPJZKBKS-UHFFFAOYSA-N","?","25",,"a/thermodynamic","?","basic",8.52
"16926","[NH+]=1(C=3(C(C(NCCCN(CC)CC)=C2(C=1C=CC=C2))=CC=CC=3))","CCN(CCCNC1C2=CC=CC=C2N=C2C=CC=CC2=1)CC","InChI=1S/C20H25N3/c1-3-23(4-2)15-9-14-21-20-16-10-5-7-12-18(16)22-19-13-8-6-11-17(19)20/h5-8,10-13H,3-4,9,14-15H2,1-2H3,(H,21,22)","UJTMSMCDKSEDHU-UHFFFAOYSA-N","?","18","potentiometric","b2/apparent","?","basic",8.53
"10703","S(=O)(=O)(N)C1(=C(C=CC=C1)CN)","NCC1C=CC=CC=1S(N)(=O)=O","InChI=1S/C7H10N2O2S/c8-5-6-3-1-2-4-7(6)12(9,10)11/h1-4H,5,8H2,(H2,9,10,11)","NDRZWXBIKCFBSU-UHFFFAOYSA-N","?","21","potentiometric","a1/apparent","?","basic",8.53
"12526","O=C(OC)C1(C(O)CC2(N(C1CC2)C))","COC(O)=C1C2CCC(CC1O)N2C","InChI=1S/C10H17NO3/c1-11-6-3-4-7(11)9(8(12)5-6)10(13)14-2/h6-8,12-13H,3-5H2,1-2H3","BOWYNFSOLZTYCR-UHFFFAOYSA-N","?, ?","25","potentiometric","a/apparent","NH%+&, ?","basic",8.530000000000001
"17898","N1(=N[N-]C(=N1)CN)","NCC1=NNN=N1","InChI=1S/C2H5N5/c3-1-2-4-6-7-5-2/h1,3H2,(H,4,5,6,7)","ZHCLIFKUVIFYBY-UHFFFAOYSA-N","?","25","potentiometric","a2/apparent","?","basic",8.54
"14084","O=C(NCCN(C)C)C(=C)C","CC(=C)C(=O)NCCN(C)C","InChI=1S/C8H16N2O/c1-7(2)8(11)9-5-6-10(3)4/h1,5-6H2,2-4H3,(H,9,11)","DCBBWYIVFRLKCD-UHFFFAOYSA-N","?","25","potentiometric","a1/apparent","?","basic",8.54
"14688","O=C(C1(=CC=C(O)C=C1))CNCCCC","CCCCN=CC(O)C1=CC=C(O)C=C1","InChI=1S/C12H17NO2/c1-2-3-8-13-9-12(15)10-4-6-11(14)7-5-10/h4-7,9,12,14-15H,2-3,8H2,1H3","XMTQRAGLIKQVNS-UHFFFAOYSA-N","?",,"potentiometric","b/apparent","?","basic",8.55
"14699","OC1(=C(C=C(C(C)(C)C)C=C1)CN(C)C)","CN(C)CC1C=C(C=CC=1O)C(C)(C)C","InChI=1S/C13H21NO/c1-13(2,3)11-6-7-12(15)10(8-11)9-14(4)5/h6-8,15H,9H2,1-5H3","AOLMGCHTFOOEDQ-UHFFFAOYSA-N","?","25","mean from 2","a1/apparent","OH","basic",8.55
"10698","S(=O)(=O)(N)C1(=CC(=CC=C1)CN)","NCC1C=C(C=CC=1)S(N)(=O)=O","InChI=1S/C7H10N2O2S/c8-5-6-2-1-3-7(4-6)12(9,10)11/h1-4H,5,8H2,(H2,9,10,11)","HNENXADRSCEPIJ-UHFFFAOYSA-N","?","21","potentiometric","a1/apparent","?","basic",8.55
"13114","O1(C(CN(CC)CC)C1)","CCN(CC1CO1)CC","InChI=1S/C7H15NO/c1-3-8(4-2)5-7-6-9-7/h7H,3-6H2,1-2H3","SBIDUCNDVPSWQT-UHFFFAOYSA-N","?",,"potentiometric","a/apparent","?","basic",8.55
"14077","S(CCN(C)C)CCN(C)C","CN(C)CCSCCN(C)C","InChI=1S/C8H20N2S/c1-9(2)5-7-11-8-6-10(3)4/h5-8H2,1-4H3","CSOZUBZPEIKOKM-UHFFFAOYSA-N","?, ?","22","potentiometric","a2/apparent","?, ?","basic",8.55
"15902","O2(C1(=C(OC)C=CC5(=C1C34(C2CCCC3C(N(C)CC4)C5O))))","COC1C=CC2C(O)C3C4CCCC5OC=1C=2C45CCN3C","InChI=1S/C18H23NO3/c1-19-9-8-18-11-4-3-5-13(18)22-17-12(21-2)7-6-10(14(17)18)16(20)15(11)19/h6-7,11,13,15-16,20H,3-5,8-9H2,1-2H3","PMIVBQKAUOYODT-UHFFFAOYSA-N","?, ?",,"potentiometric","a/apparent","?, ?","basic",8.56
"16058","N4(=C2(C=1(N(C=3(C=CC(=CC=3(C=1CCC2))C))CC4)))","CC1=CC2=C(C=C1)N1CCN=C3CCCC2=C13","InChI=1S/C15H16N2/c1-10-5-6-14-12(9-10)11-3-2-4-13-15(11)17(14)8-7-16-13/h5-6,9H,2-4,7-8H2,1H3","YQUZIBDUSIKQDQ-UHFFFAOYSA-N","?","25","spectrophotometric","b1/apparent","H(1+)","basic",8.57
"16682","OCC1(CN(C2(CC4(=CNC=3(C4(=C(C2(C1))C=CC=3)))))C)","CN1CC(CO)CC2C1CC1=CNC3=CC=CC2=C13","InChI=1S/C16H20N2O/c1-18-8-10(9-19)5-13-12-3-2-4-14-16(12)11(7-17-14)6-15(13)18/h2-4,7,10,13,15,17,19H,5-6,8-9H2,1H3","UFKTZIXVYHGAES-UHFFFAOYSA-N","?, ?","24","potentiometric","a/apparent","?, ?","basic",8.57
"14922","N1(=C(N=C(C)C=C1NCCN(CC)CC)N)","CC1C=C(NCCN(CC)CC)N=C(N)N=1","InChI=1S/C11H21N5/c1-4-16(5-2)7-6-13-10-8-9(3)14-11(12)15-10/h8H,4-7H2,1-3H3,(H3,12,13,14,15)","LCOFVCJZEGARPK-UHFFFAOYSA-N","?, ?","25","potentiometric","a2/apparent","?, ?","basic",8.575
"15816","O=C(C(C1(=CC=CC=C1))(C2(=CC=CC=C2))CC(N3(CCCCC3))C)CC","CC=C(O)C(CC(C)N1CCCCC1)(C1C=CC=CC=1)C1C=CC=CC=1","InChI=1S/C24H31NO/c1-3-23(26)24(21-13-7-4-8-14-21,22-15-9-5-10-16-22)19-20(2)25-17-11-6-12-18-25/h3-5,7-10,13-16,20,26H,6,11-12,17-19H2,1-2H3","VJSBDMBMDHYBNX-UHFFFAOYSA-N","?","25","potentiometric","a/apparent","NH+","basic",8.58
"14334","O=[N+]([O-])C1(=C(C=CC=C1)CN)","NCC1C=CC=CC=1[N+]([O-])=O","InChI=1S/C7H8N2O2/c8-5-6-3-1-2-4-7(6)9(10)11/h1-4H,5,8H2","PYYRNLDFMZVKCV-UHFFFAOYSA-N","?","25","potentiometric","a1/apparent","?","basic",8.59
"14724","O=C(N(N=C(C)C)C1(CCN(C)CC1))C","CN1CCC(CC1)N(N=C(C)C)C(=C)O","InChI=1S/C11H21N3O/c1-9(2)12-14(10(3)15)11-5-7-13(4)8-6-11/h11,15H,3,5-8H2,1-2,4H3","WEWPHBXYHDAVLT-UHFFFAOYSA-N","?","20","potentiometric","a/apparent","?","basic",8.6
"16340","N=2(C1(=C(N)C=CC=C1NC=2CC3(=CC=CC=C3)))","NC1C=CC=C2NC(CC3C=CC=CC=3)=NC2=1","InChI=1S/C14H13N3/c15-11-7-4-8-12-14(11)17-13(16-12)9-10-5-2-1-3-6-10/h1-8H,9,15H2,(H,16,17)","VNLIOJQNRXIIAL-UHFFFAOYSA-N","?",,"potentiometric","b1/apparent","?","basic",8.6
"16042","OC(CN(CC(O)CC)CCCCCC)CC","CCCCCCN(CC(O)CC)CC(O)CC","InChI=1S/C14H31NO2/c1-4-7-8-9-10-15(11-13(16)5-2)12-14(17)6-3/h13-14,16-17H,4-12H2,1-3H3","BKSBKQVZASYDAZ-UHFFFAOYSA-N","?","20","potentiometric","a1/apparent","-NH3%+&","basic",8.6
"15697","N(CCC=2(C1(=C(C=CC=C1)NC=2)))(CCC)CCC","CCCN(CCC)CCC1=CNC2C=CC=CC1=2","InChI=1S/C16H24N2/c1-3-10-18(11-4-2)12-9-14-13-17-16-8-6-5-7-15(14)16/h5-8,13,17H,3-4,9-12H2,1-2H3","BOOQTIHIKDDPRW-UHFFFAOYSA-N","?",,"potentiometric","a/apparent","?","basic",8.6
"16932","O=C4(C1(OC=5(C(OC)=CC=C3(C=5(C12(C(O)(C(N(C)CC2)C3)CC4))))))","COC1C=CC2CC3N(C)CCC45C(OC=1C4=2)C(O)=CCC53O","InChI=1S/C18H21NO4/c1-19-8-7-17-14-10-3-4-12(22-2)15(14)23-16(17)11(20)5-6-18(17,21)13(19)9-10/h3-5,13,16,20-21H,6-9H2,1-2H3","YPSDYHQCHWSVBR-UHFFFAOYSA-N","?","23","spectrophotometric","b1/apparent","?","basic",8.6
"16895","N1(=C(C=C(N)C=C1C=CC2(=CC=CC=C2))C=CC3(=CC=CC=C3))","NC1=CC(C=CC2C=CC=CC=2)=NC(=C1)C=CC1C=CC=CC=1","InChI=1S/C21H18N2/c22-19-15-20(13-11-17-7-3-1-4-8-17)23-21(16-19)14-12-18-9-5-2-6-10-18/h1-16H,(H2,22,23)","NUNHKSVKMKJFJZ-UHFFFAOYSA-N","?","20","potentiometric","a/apparent","?","basic",8.6
"17886","[O-]C1(=CN=CC=C1)","OC1C=NC=CC=1","InChI=1S/C5H5NO/c7-5-2-1-3-6-4-5/h1-4,7H","GRFNBEZIAWKNCO-UHFFFAOYSA-N","?","24","mean from 7","a2/apparent","?","basic",8.6
"12940","O(C1(=C([O-])N=CN=C1))C","COC1C=NC=NC=1O","InChI=1S/C5H6N2O2/c1-9-4-2-6-3-7-5(4)8/h2-3H,1H3,(H,6,7,8)","WOKGGVGWBXBJPK-UHFFFAOYSA-N","?","20","potentiometric","a2/apparent","?","basic",8.6
"11900","O=C(OCC)CCN(C)C","CCOC(O)=CCN(C)C","InChI=1S/C7H15NO2/c1-4-10-7(9)5-6-8(2)3/h5,9H,4,6H2,1-3H3","AKAHRJNMIVTBSZ-UHFFFAOYSA-N","?","25","potentiometric","a/apparent","NHMe3","basic",8.6
"14453","OC1(=C(O)C=CC=C1CCN)","NCCC1=CC=CC(O)=C1O","InChI=1S/C8H11NO2/c9-5-4-6-2-1-3-7(10)8(6)11/h1-3,10-11H,4-5,9H2","SYHVBRQKMHIAJQ-UHFFFAOYSA-N","?","25","potentiometric","a1/apparent","?","basic",8.6
"14360","O=C(NCC)C1(NCCCC1)","CCNC(O)C1CCCCN=1","InChI=1S/C8H16N2O/c1-2-9-8(11)7-5-3-4-6-10-7/h8-9,11H,2-6H2,1H3","YBPKYNZVLCQNEW-UHFFFAOYSA-N","?","25","potentiometric","a/apparent","?","basic",8.6
"14508","OC1(=C(C=CC=C1)CN(C)C)","CN(C)CC1C=CC=CC=1O","InChI=1S/C9H13NO/c1-10(2)7-8-5-3-4-6-9(8)11/h3-6,11H,7H2,1-2H3","FUIQBJHUESBZNU-UHFFFAOYSA-N","?","25","mean from 7","b1/apparent","N-H","basic",8.6
"14810","O=[N+]([O-])C4(=C(OC)C(C(=O)NC2(CC3(N(CC1(=CC=CC=C1))C(C2)CC3)))=CC=C4)","COC1C(=CC=CC=1[N+]([O-])=O)C(=O)NC1CC2CCC(C1)N2CC1C=CC=CC=1","InChI=1S/C22H25N3O4/c1-29-21-19(8-5-9-20(21)25(27)28)22(26)23-16-12-17-10-11-18(13-16)24(17)14-15-6-3-2-4-7-15/h2-9,16-18H,10-14H2,1H3,(H,23,26)","BRCPZDIVTZZEHM-UHFFFAOYSA-N","?","25","potentiometric","a1/thermodynamic","?","basic",8.61
"13873","[O-]C=1(N=NC2(=CC=CC=C2(C=1)))","OC1=CC2C=CC=CC=2N=N1","InChI=1S/C8H6N2O/c11-8-5-6-3-1-2-4-7(6)9-10-8/h1-5H,(H,10,11)","CXUGAWWYKSOLEL-UHFFFAOYSA-N","?","20","potentiometric","a2/apparent","?","basic",8.61
"10671","O=C(N)CC(=O)C1(=CN=CC=C1)","N=C(O)CC(=O)C1C=NC=CC=1","InChI=1S/C8H8N2O2/c9-8(12)4-7(11)6-2-1-3-10-5-6/h1-3,5H,4H2,(H2,9,12)","HXFRLTVLFSHEEE-UHFFFAOYSA-N","?","25","spectrophotometric","a1/apparent","?","basic",8.61
"16635","O=C(C2(C1(=CC(O)=CC=C1))(CCN(C)CC2))CCC","CCC=C(O)C1(CCN(C)CC1)C1=CC(O)=CC=C1","InChI=1S/C16H23NO2/c1-3-5-15(19)16(8-10-17(2)11-9-16)13-6-4-7-14(18)12-13/h4-7,12,18-19H,3,8-11H2,1-2H3","UALMGYZLKYXBPF-UHFFFAOYSA-N","?","20","potentiometric","a/apparent","NH+","basic",8.62
"16908","OC(C1(=CC=CC=C1))(C2(=CC=CC=C2))CC(N3(CCCCC3))C","CC(CC(O)(C1C=CC=CC=1)C1C=CC=CC=1)N1CCCCC1","InChI=1S/C21H27NO/c1-18(22-15-9-4-10-16-22)17-21(23,19-11-5-2-6-12-19)20-13-7-3-8-14-20/h2-3,5-8,11-14,18,23H,4,9-10,15-17H2,1H3","FMMCXLPEVLXNQJ-UHFFFAOYSA-N","?",,,"a/apparent","NH+","basic",8.62
"16835","O=C(C(C1(=CC=CC=C1))(C2(=CC=CC=C2))CC(N(C)C)C)CC","CC=C(O)C(CC(C)N(C)C)(C1C=CC=CC=1)C1C=CC=CC=1","InChI=1S/C21H27NO/c1-5-20(23)21(16-17(2)22(3)4,18-12-8-6-9-13-18)19-14-10-7-11-15-19/h5-15,17,23H,16H2,1-4H3","GFPHOUQURKUOJS-UHFFFAOYSA-N","?","24","mean from 2","b1/apparent","?","basic",8.62
"17454","OCC(N)CO","NC(CO)CO","InChI=1S/C3H9NO2/c4-3(1-5)2-6/h3,5-6H,1-2,4H2","KJJPLEZQSCZCKE-UHFFFAOYSA-N","?","25","potentiometric","a1/apparent","?","basic",8.63
"15434","[Br]C2(=CC=C(C(OCCN(C)C)C1(=CC=CC=C1))C=C2)","CN(C)CCOC(C1C=CC=CC=1)C1C=CC(Br)=CC=1","InChI=1S/C17H20BrNO/c1-19(2)12-13-20-17(14-6-4-3-5-7-14)15-8-10-16(18)11-9-15/h3-11,17H,12-13H2,1-2H3","NUNIWXHYABYXKF-UHFFFAOYSA-N","?","25","potentiometric","a/apparent","?","basic",8.64
"12301","O=C(OC(CN(CC)CC)C)C(=C)C","CC(=C)C(=O)OC(C)CN(CC)CC","InChI=1S/C11H21NO2/c1-6-12(7-2)8-10(5)14-11(13)9(3)4/h10H,3,6-8H2,1-2,4-5H3","SBLANOOCNKHOSM-UHFFFAOYSA-N","?","25","mean from 2","a1/apparent","?","basic",8.65
"12215","OC1(=C(C(=CC=C1)C)CN(CC)CC)","CC1=CC=CC(O)=C1CN(CC)CC","InChI=1S/C12H19NO/c1-4-13(5-2)9-11-10(3)7-6-8-12(11)14/h6-8,14H,4-5,9H2,1-3H3","RONQOEJQZJMXTQ-UHFFFAOYSA-N","?","25","potentiometric","b1/apparent","?","basic",8.65
"15304","S1(C3(=C(N(CC(N(C)C)C)C2(=C1C=CC=C2))C=CC=C3))","CN(C)C(C)CN1C2C=CC=CC=2SC2C=CC=CC1=2","InChI=1S/C17H20N2S/c1-13(18(2)3)12-19-14-8-4-6-10-16(14)20-17-11-7-5-9-15(17)19/h4-11,13H,12H2,1-3H3","PWWVAXIEGOYWEE-UHFFFAOYSA-N","?","25","potentiometric","a/apparent","?","basic",8.65
"11603","[S-]C1(=[N+](C([O-])=CC=N1)CC)","CC[N+]1=C(O)C=CN=C1S","InChI=1S/C6H8N2OS/c1-2-8-5(9)3-4-7-6(8)10/h3-4H,2H2,1H3,(H,7,9,10)/p+1","OVOUEJPAQLHGNS-UHFFFAOYSA-O","?",,"spectrophotometric","a/apparent","?","basic",8.65
"13209","O=C(OCCN(CC)CC)C(=C)C","CC(=C)C(=O)OCCN(CC)CC","InChI=1S/C10H19NO2/c1-5-11(6-2)7-8-13-10(12)9(3)4/h3,5-8H2,1-2,4H3","SJIXRGNQPBQWMK-UHFFFAOYSA-N","?","25","mean from 3","a1/thermodynamic","?","basic",8.66
"14912","O(C1(=C(C=CC(=C1)C)C(C)C))CCN(C)C","CC1C=CC(C(C)C)=C(C=1)OCCN(C)C","InChI=1S/C14H23NO/c1-11(2)13-7-6-12(3)10-14(13)16-9-8-15(4)5/h6-7,10-11H,8-9H2,1-5H3","MZPZTGNMUWMDBQ-UHFFFAOYSA-N","?","25","potentiometric","a2/apparent","?","basic",8.66
"16628","O=C(OC2(C1(=CC=CC=C1))(C(CN(C)CC2)C))CC","CC=C(O)OC1(CCN(C)CC1C)C1C=CC=CC=1","InChI=1S/C16H23NO2/c1-4-15(18)19-16(14-8-6-5-7-9-14)10-11-17(3)12-13(16)2/h4-9,13,18H,10-12H2,1-3H3","ALSFISZOZMNXPE-UHFFFAOYSA-N","?","20","mean from 2","a/apparent","NH%+&","basic",8.66
"15745","O=C(C2(C1(=CC(O)=CC=C1))(CCN(C)CC2))CC","CC=C(O)C1(CCN(C)CC1)C1=CC(O)=CC=C1","InChI=1S/C15H21NO2/c1-3-14(18)15(7-9-16(2)10-8-15)12-5-4-6-13(17)11-12/h3-6,11,17-18H,7-10H2,1-2H3","LJNPUAXZWNSERY-UHFFFAOYSA-N","?","20","potentiometric","a/apparent","NH+","basic",8.67
"15261","O(C4(=CC=1(C(=NC=CC=1C(O)C2(N3(CC(CC)C(C2)CC3)))C=C4)))C","CCC1CN2CCC1CC2C(O)C1C=CN=C2C=CC(=CC=12)OC","InChI=1S/C20H26N2O2/c1-3-13-12-22-9-7-14(13)10-19(22)20(23)16-6-8-21-18-5-4-15(24-2)11-17(16)18/h4-6,8,11,13-14,19-20,23H,3,7,9-10,12H2,1-2H3","LJOQGZACKSYWCH-UHFFFAOYSA-N","?","15",,"apparent","?","basic",8.67
"10832","OC1(=C(C=C(C)C=C1)CN(C)C)","CC1C=CC(O)=C(CN(C)C)C=1","InChI=1S/C10H15NO/c1-8-4-5-10(12)9(6-8)7-11(2)3/h4-6,12H,7H2,1-3H3","HYVZRUQCAHFECM-UHFFFAOYSA-N","?","25","mean from 3","b1/apparent","?","basic",8.68
"14765","O=C(NC2(CC3(N(CC1(=CC=CC=C1))C(C2)CC3)))C5(=C4(OCCOC4=CC=C5))","O=C(NC1CC2CCC(C1)N2CC1C=CC=CC=1)C1C=CC=C2OCCOC=12","InChI=1S/C23H26N2O3/c26-23(20-7-4-8-21-22(20)28-12-11-27-21)24-17-13-18-9-10-19(14-17)25(18)15-16-5-2-1-3-6-16/h1-8,17-19H,9-15H2,(H,24,26)","FDGZQQJKMNWVJS-UHFFFAOYSA-N","?","25","potentiometric","a1/thermodynamic","?","basic",8.68
"17835","[O-]C1(=CN=NC=C1)","OC1C=NN=CC=1","InChI=1S/C4H4N2O/c7-4-1-2-5-6-3-4/h1-3H,(H,5,7)","VHVUTJZQFZBIRR-UHFFFAOYSA-N","?","20","potentiometric","a2/apparent","?","basic",8.68
"14535","[Si](OC1(CN(CC)C1))(C)(C)C","CCN1CC(C1)O[Si](C)(C)C","InChI=1S/C8H19NOSi/c1-5-9-6-8(7-9)10-11(2,3)4/h8H,5-7H2,1-4H3","PCHFHPIBKXJAHF-UHFFFAOYSA-N","?","20","potentiometric","a1/apparent","?","basic",8.68
"16494","O=C(C1(=CC=CC=C1))CCNCCC(=O)C2(=CC=CC=C2)","OC(=CCNCC=C(O)C1C=CC=CC=1)C1C=CC=CC=1","InChI=1S/C18H19NO2/c20-17(15-7-3-1-4-8-15)11-13-19-14-12-18(21)16-9-5-2-6-10-16/h1-12,19-21H,13-14H2","CXGZCFYUCJGUPM-UHFFFAOYSA-N","?","20",,"b/apparent","?","basic",8.69
"12650","OC(CN(CCO)C)C","CC(O)CN(C)CCO","InChI=1S/C6H15NO2/c1-6(9)5-7(2)3-4-8/h6,8-9H,3-5H2,1-2H3","CRJALRGNJLMCAQ-UHFFFAOYSA-N","?","20","mean from 2","a1/apparent","-NH3%+&","basic",8.69
"10797","OC1(=CC=C(C(O)C(N)C)C=C1)","CC(N)C(O)C1=CC=C(O)C=C1","InChI=1S/C9H13NO2/c1-6(10)9(12)7-2-4-8(11)5-3-7/h2-6,9,11-12H,10H2,1H3","JAYBQRKXEFDRER-UHFFFAOYSA-N","?","25","potentiometric","b/apparent","?","basic",8.69
"11321","N(C(C#C)(C(C)C)C)(C(C)C)C","CN(C(C)C)C(C)(C#C)C(C)C","InChI=1S/C11H21N/c1-8-11(6,9(2)3)12(7)10(4)5/h1,9-10H,2-7H3","DZXXTLFIKMILLG-UHFFFAOYSA-N","?","25","potentiometric","a1/apparent","?","basic",8.7
"17126","N2(CCC(NNC1(=CC=CC=C1))CC2)(C)","CN1CCC(CC1)NNC1C=CC=CC=1","InChI=1S/C12H19N3/c1-15-9-7-12(8-10-15)14-13-11-5-3-2-4-6-11/h2-6,12-14H,7-10H2,1H3","WRCUZXDKTPJURL-UHFFFAOYSA-N","?","20","potentiometric","a/apparent","?","basic",8.7
"15246","S(=O)(=O)(NCC1(N(CCC1)CC))C2(=C(OC)C(OC)=C(OC)C=C2)","CCN1CCCC1CNS(=O)(=O)C1C=CC(OC)=C(OC)C=1OC","InChI=1S/C16H26N2O5S/c1-5-18-10-6-7-12(18)11-17-24(19,20)14-9-8-13(21-2)15(22-3)16(14)23-4/h8-9,12,17H,5-7,10-11H2,1-4H3","YPTIAZZKEKAPOU-UHFFFAOYSA-N","?","20","potentiometric","a1/thermodynamic","amino","basic",8.7