"Molecule name","OriginalSmiles","Canonical_QSARr","InChI_Code_QSARr","InChI Key_QSARr","Salt_Solvent (Concatenate)","temp","method","type","group","basicOrAcidic","pKa"
"13408","O(C2(=CC1(=C(N(C)C(=C1)C)C=C2)))C","CC1=CC2C=C(C=CC=2N1C)OC","InChI=1S/C11H13NO/c1-8-6-9-7-10(13-3)4-5-11(9)12(8)2/h4-7H,1-3H3","FODAUNMFUIXBBO-UHFFFAOYSA-N","?","25",,"a1/apparent","?","basic",0.25
"11075","S(C2(=NC=1(C(=CC=CC=1)N=C2)))C","CSC1C=NC2=CC=CC=C2N=1","InChI=1S/C9H8N2S/c1-12-9-6-10-7-4-2-3-5-8(7)11-9/h2-6H,1H3","FOQUKZGBNFIUMZ-UHFFFAOYSA-N","?",,"spectrophotometric","a/apparent","?","basic",0.26
"11251","S1(=O)(=O)(N=C(N)C=2(NC=NC=2(N1)))","NC1=NS(=O)(=O)NC2N=CNC=21","InChI=1S/C4H5N5O2S/c5-3-2-4(7-1-6-2)9-12(10,11)8-3/h1,9H,(H2,5,8)(H,6,7)","XHUJLOYABCEGKW-UHFFFAOYSA-N","?","20","spectrophotometric","a1/apparent","?","basic",0.28
"11101","O(C2(=NC=1(C(=CC=CC=1)N=C2)))C","COC1C=NC2=CC=CC=C2N=1","InChI=1S/C9H8N2O/c1-12-9-6-10-7-4-2-3-5-8(7)11-9/h2-6H,1H3","BAXABXIZQPAJEF-UHFFFAOYSA-N","?",,"spectrophotometric","a/apparent","?","basic",0.28
"12433","ClC2(=CC=1(N=C(C(=O)OC)NC=1C=C2))","COC(=O)C1NC2C=CC(Cl)=CC=2N=1","InChI=1S/C9H7ClN2O2/c1-14-9(13)8-11-6-3-2-5(10)4-7(6)12-8/h2-4H,1H3,(H,11,12)","ZABAOZMNFJQFJC-UHFFFAOYSA-N","?","24.9","spectrophotometric","a1/apparent","?","basic",0.3
"13313","[N+]2(=C(C1(=NC=CC=C1))C=CC=C2)(C)","C[N+]1C=CC=CC=1C1C=CC=CN=1","InChI=1S/C11H11N2/c1-13-9-5-3-7-11(13)10-6-2-4-8-12-10/h2-9H,1H3/q+1","JXBCKGDMEUICJN-UHFFFAOYSA-N","?",,"spectrophotometric","a/apparent","?","basic",0.31
"17032","O=C(C1(=CC=CC=C1))CC2(=NC=CN=C2)","OC(=CC1C=NC=CN=1)C1C=CC=CC=1","InChI=1S/C12H10N2O/c15-12(10-4-2-1-3-5-10)8-11-9-13-6-7-14-11/h1-9,15H","FBVVSWHGEYMWJB-UHFFFAOYSA-N","?","25","spectrophotometric","a1/apparent","?","basic",0.33
"15320","O=[N+]([O-])C3(=CC=C(C=2(OC(C1(=CC=CC=C1))=NC=2))C=C3)","[O-][N+](=O)C1C=CC(=CC=1)C1=CN=C(O1)C1C=CC=CC=1","InChI=1S/C15H10N2O3/c18-17(19)13-8-6-11(7-9-13)14-10-16-15(20-14)12-4-2-1-3-5-12/h1-10H","OQTXWGNCTMBXMS-UHFFFAOYSA-N","?","25","spectrophotometric","b1/apparent","?","basic",0.35
"13033","[Br]C1(=C(N)C([Br])=CC=C1)","NC1C(Br)=CC=CC=1Br","InChI=1S/C6H5Br2N/c7-4-2-1-3-5(8)6(4)9/h1-3H,9H2","XIRRDAWDNHRRLB-UHFFFAOYSA-N","?","22","mean from 2","a/apparent","?","basic",0.36
"17104","O(C2(=CC(NC1(=CC=CC=C1))=CC=C2))C","COC1=CC(=CC=C1)NC1C=CC=CC=1","InChI=1S/C13H13NO/c1-15-13-9-5-8-12(10-13)14-11-6-3-2-4-7-11/h2-10,14H,1H3","MKASXAGBWHIGCF-UHFFFAOYSA-N","?","25","mean from 2","b1/apparent","NH","basic",0.37
"15559","[Br]C3(=CC=C(C=2(OC(C1(=CC=CC=C1))=CN=2))C=C3)","BrC1C=CC(=CC=1)C1=NC=C(O1)C1C=CC=CC=1","InChI=1S/C15H10BrNO/c16-13-8-6-12(7-9-13)15-17-10-14(18-15)11-4-2-1-3-5-11/h1-10H","KQKZBILGPDPYLZ-UHFFFAOYSA-N","?","25","spectrophotometric","b1/apparent","?","basic",0.4
"17587","N1(C=CC=C1)","C1=CC=CN1","InChI=1S/C4H5N/c1-2-4-5-3-1/h1-5H","KAESVJOAVNADME-UHFFFAOYSA-N","?","24.9",,"b1/apparent","?","basic",0.4
"17249","O=C(N)N","NC(N)=O","InChI=1S/CH4N2O/c2-1(3)4/h(H4,2,3,4)","XSQUKJJJFZCRTK-UHFFFAOYSA-N","?","25","mean from 5","a1/apparent","?","basic",0.4
"11796","O=C(O)C1(=C[N+]([O-])=CC=C1)","[O-][N+]1C=C(C=CC=1)C(O)=O","InChI=1S/C6H5NO3/c8-6(9)5-2-1-3-7(10)4-5/h1-4H,(H,8,9)","FJCFFCXMEXZEIM-UHFFFAOYSA-N","?","24","mean from 2","a1/thermodynamic","?","basic",0.41
"11282","O=[N+]([O-])C2(=C1(C(NN=C1)=CC=C2))","[O-][N+](=O)C1C=CC=C2NN=CC=12","InChI=1S/C7H5N3O2/c11-10(12)7-3-1-2-6-5(7)4-8-9-6/h1-4H,(H,8,9)","WBTVZVUYPVQEIF-UHFFFAOYSA-N","?","20","potentiometric","a1/thermodynamic","NH2+","basic",0.42
"17048","O=[N+]([O-])C2(=CC(N1(N=NN=C1N))=CC=C2)","NC1=NN=NN1C1C=C(C=CC=1)[N+]([O-])=O","InChI=1S/C7H6N6O2/c8-7-9-10-11-12(7)5-2-1-3-6(4-5)13(14)15/h1-4H,(H2,8,9,11)","YDTLOZIXLQSLQE-UHFFFAOYSA-N","?","25","potentiometric","a/apparent","H+","basic",0.47
"11134","N2(C1(=C(C=C(C)C=C1)C=C2C))(C)","CC1=CC2C=C(C)N(C)C=2C=C1","InChI=1S/C11H13N/c1-8-4-5-11-10(6-8)7-9(2)12(11)3/h4-7H,1-3H3","QEOSOLXDPRSDKG-UHFFFAOYSA-N","?","25",,"a1/apparent","?","basic",0.5
"13290","O=C1(N(C(=O)C=2(N(C)C=NC=2(N1)))C)","CN1C(=O)NC2N=CN(C)C=2C1=O","InChI=1S/C7H8N4O2/c1-10-3-8-5-4(10)6(12)11(2)7(13)9-5/h3H,1-2H3,(H,9,13)","QUNWUDVFRNGTCO-UHFFFAOYSA-N","?",,"spectrophotometric","a1/apparent","?","basic",0.5
"13343","O=C2(N(C1(=C(C=CC=C1)N=C2C))C)","CC1=NC2C=CC=CC=2N(C)C1=O","InChI=1S/C10H10N2O/c1-7-10(13)12(2)9-6-4-3-5-8(9)11-7/h3-6H,1-2H3","GRGDSEWMSMJHMU-UHFFFAOYSA-N","?","20","spectrophotometric","a/apparent","?","basic",0.51
"12415","O=[N+]([O-])C=1(C=2(C(C(N)=CC=1)=CC=CC=2))","NC1=CC=C(C2=CC=CC=C21)[N+]([O-])=O","InChI=1S/C10H8N2O2/c11-9-5-6-10(12(13)14)8-4-2-1-3-7(8)9/h1-6H,11H2","BVPJPRYNQHAOPQ-UHFFFAOYSA-N","?","23","mean from 3","a1/apparent","RNH3(+)","basic",0.53
"10217","ClC1(=CN=CC(=C1)Cl)","ClC1=CN=CC(Cl)=C1","InChI=1S/C5H3Cl2N/c6-4-1-5(7)3-8-2-4/h1-3H","WPGHPGAUFIJVJF-UHFFFAOYSA-N","?","25","mean from 2","a1/apparent","?","basic",0.55
"11152","S=C1(C2(=C(N(C)C=C1)C=CC=C2))","CN1C=CC(=S)C2C=CC=CC1=2","InChI=1S/C10H9NS/c1-11-7-6-10(12)8-4-2-3-5-9(8)11/h2-7H,1H3","UHFHXGARFLWEAF-UHFFFAOYSA-N","?","20","spectrophotometric","a/apparent","?","basic",0.56
"16727","O=CC3(=CC=C(C=2(OC(C1(=CC=CC=C1))=NC=2))C=C3)","O=CC1C=CC(=CC=1)C1=CN=C(O1)C1C=CC=CC=1","InChI=1S/C16H11NO2/c18-11-12-6-8-13(9-7-12)15-10-17-16(19-15)14-4-2-1-3-5-14/h1-11H","XAYCODVALUAMFG-UHFFFAOYSA-N","?","25","spectrophotometric","b1/apparent","?","basic",0.57
"16733","ClC3(=CC=C(C=2(OC(C1(=CC=C(C)C=C1))=CN=2))C=C3)","CC1C=CC(=CC=1)C1=CN=C(O1)C1C=CC(Cl)=CC=1","InChI=1S/C16H12ClNO/c1-11-2-4-12(5-3-11)15-10-18-16(19-15)13-6-8-14(17)9-7-13/h2-10H,1H3","YVJBNRTUZCPTAA-UHFFFAOYSA-N","?","25","spectrophotometric","b1/apparent","?","basic",0.58
"16200","S(=O)(=O)(NC1(=NC(=CC=N1)C))C2(=CC=CC=C2)","CC1=CC=NC(NS(=O)(=O)C2C=CC=CC=2)=N1","InChI=1S/C11H11N3O2S/c1-9-7-8-12-11(13-9)14-17(15,16)10-5-3-2-4-6-10/h2-8H,1H3,(H,12,13,14)","JHBCSXMWPZTKTF-UHFFFAOYSA-N","?","25","potentiometric","b/apparent","?","basic",0.59
"11984","N=1(C=2(C(N=CC=1)=CC=CC=2))","C1C=NC2=CC=CC=C2N=1","InChI=1S/C8H6N2/c1-2-4-8-7(3-1)9-5-6-10-8/h1-6H","XSCHRSMBECNVNS-UHFFFAOYSA-N","?","20","mean from 2","a/thermodynamic","?","basic",0.64
"15561","[Br]C3(=CC=C(C=2(OC(C1(=CC=CC=C1))=NC=2))C=C3)","BrC1C=CC(=CC=1)C1=CN=C(O1)C1C=CC=CC=1","InChI=1S/C15H10BrNO/c16-13-8-6-11(7-9-13)14-10-17-15(18-14)12-4-2-1-3-5-12/h1-10H","ZPZXCKXJGCWWBW-UHFFFAOYSA-N","?","25","spectrophotometric","b1/apparent","?","basic",0.65
"14380","O=[N+]([O-])C1(=CC=C(NO)C=C1)","[O-][N+](=O)C1C=CC(=CC=1)NO","InChI=1S/C6H6N2O3/c9-7-5-1-3-6(4-2-5)8(10)11/h1-4,7,9H","XXFXVCXUJCOLSU-UHFFFAOYSA-N","?","25",,"b1/thermodynamic","?","basic",0.65
"11651","[Br]C1(=C(N)C([Br])=CC(=C1)C)","CC1=CC(Br)=C(N)C(Br)=C1","InChI=1S/C7H7Br2N/c1-4-2-5(8)7(10)6(9)3-4/h2-3H,10H2,1H3","ATDIROHVRVQMRO-UHFFFAOYSA-N","?","21","spectrophotometric","a/apparent","?","basic",0.69
"10683","O=[N+]([O-])C1(=CC=C(N(C)C)C=C1)","CN(C)C1C=CC(=CC=1)[N+]([O-])=O","InChI=1S/C8H10N2O2/c1-9(2)7-3-5-8(6-4-7)10(11)12/h3-6H,1-2H3","QJAIOCKFIORVFU-UHFFFAOYSA-N","?","23","mean from 4","b1/apparent","amine","basic",0.69
"17190","S1(C(=NC2(=C1C=CC=C2))C3(=CC=CC=C3))","C1=CC=CC=C1C1=NC2C=CC=CC=2S1","InChI=1S/C13H9NS/c1-2-6-10(7-3-1)13-14-11-8-4-5-9-12(11)15-13/h1-9H","XBHOUXSGHYZCNH-UHFFFAOYSA-N","?","26.9","spectrophotometric","a1/apparent","NH(+)","basic",0.7
"13441","ClC2(=CC(N1(N=NN=C1N))=CC=C2)","NC1=NN=NN1C1C=C(Cl)C=CC=1","InChI=1S/C7H6ClN5/c8-5-2-1-3-6(4-5)13-7(9)10-11-12-13/h1-4H,(H2,9,10,12)","FKGBDTAREVJBGX-UHFFFAOYSA-N","?","25","potentiometric","a/apparent","H+","basic",0.7
"13972","[O-][N+]=1(C=2(C(C=CC=1)=CC=CC=2))","[O-][N+]1=CC=CC2=CC=CC=C12","InChI=1S/C9H7NO/c11-10-7-3-5-8-4-1-2-6-9(8)10/h1-7H","GIIWGCBLYNDKBO-UHFFFAOYSA-N","?","20","spectrophotometric","a/apparent","?","basic",0.7
"17870","ClC1(=NC=CC=C1)","ClC1C=CC=CN=1","InChI=1S/C5H4ClN/c6-5-3-1-2-4-7-5/h1-4H","OKDGRDCXVWSXDC-UHFFFAOYSA-N","?","25","spectrophotometric","a/thermodynamic","NH%+&","basic",0.72
"13364","N(C1(=CC=CC=C1))C2(=CC=CC=C2)","C1=CC=CC=C1NC1C=CC=CC=1","InChI=1S/C12H11N/c1-3-7-11(8-4-1)13-12-9-5-2-6-10-12/h1-10,13H","DMBHHRLKUKUOEG-UHFFFAOYSA-N","?","22","mean from 5","b1/apparent","NH","basic",0.76
"16201","S1(C(=NC(=C1)C)N=NC2(=C(O)C=CC(=C2)OC))","CC1=CSC(=N1)N=NC1C=C(C=CC=1O)OC","InChI=1S/C11H11N3O2S/c1-7-6-17-11(12-7)14-13-9-5-8(16-2)3-4-10(9)15/h3-6,15H,1-2H3","GTXGBYWNHXDTHE-UHFFFAOYSA-N","?",,"spectrophotometric","a1/apparent","?","basic",0.77
"15172","ClC(F)(F)C1(=NC=2(C=C([N+](=O)[O-])C=CC=2(N1)))","[O-][N+](=O)C1=CC2N=C(NC=2C=C1)C(F)(F)Cl","InChI=1S/C8H4ClF2N3O2/c9-8(10,11)7-12-5-2-1-4(14(15)16)3-6(5)13-7/h1-3H,(H,12,13)","RDWNGNZWBZUSAZ-UHFFFAOYSA-N","?","20","potentiometric","a1/apparent","?","basic",0.77
"13445","ClC2(=CC=C(N1(N=NN=C1N))C=C2)","NC1=NN=NN1C1C=CC(Cl)=CC=1","InChI=1S/C7H6ClN5/c8-5-1-3-6(4-2-5)13-7(9)10-11-12-13/h1-4H,(H2,9,10,12)","ODJAMMJWPPTQSR-UHFFFAOYSA-N","?","25","potentiometric","a/apparent","H+","basic",0.78
"17536","O=C(NC)N","CNC(N)=O","InChI=1S/C2H6N2O/c1-4-2(3)5/h1H3,(H3,3,4,5)","XGEGHDBEHXKFPX-UHFFFAOYSA-N","?","25","conductometric","a1/apparent","?","basic",0.8
"11784","S(=O)=C(N)C1(=CC=CC=C1)","NC(=S=O)C1C=CC=CC=1","InChI=1S/C7H7NOS/c8-7(10-9)6-4-2-1-3-5-6/h1-5H,8H2","GZEKDPVRFJUKQC-UHFFFAOYSA-N","?","25","spectrophotometric","a1/apparent","?","basic",0.8
"16325","O1(C(=NC=C1C2(=CC=CC=C2))C3(=CC=CC=C3))","C1N=C(OC=1C1C=CC=CC=1)C1C=CC=CC=1","InChI=1S/C15H11NO/c1-3-7-12(8-4-1)14-11-16-15(17-14)13-9-5-2-6-10-13/h1-11H","CNRNYORZJGVOSY-UHFFFAOYSA-N","?","25","spectrophotometric","b1/apparent","?","basic",0.84
"13848","OC=2(C1(=NC=CN=C1C=CC=2))","OC1=CC=CC2=NC=CN=C21","InChI=1S/C8H6N2O/c11-7-3-1-2-6-8(7)10-5-4-9-6/h1-5,11H","ZUQDDQFXSNXEOD-UHFFFAOYSA-N","?","19","mean from 2","a1/thermodynamic","?","basic",0.85
"14318","S=C(NCC1(=CC=CC=C1))N","NC(=S)NCC1C=CC=CC=1","InChI=1S/C8H10N2S/c9-8(11)10-6-7-4-2-1-3-5-7/h1-5H,6H2,(H3,9,10,11)","UCGFRIAOVLXVKL-UHFFFAOYSA-N","?","23","spectrophotometric","a/apparent","?","basic",0.86
"11004","O=C1(NC(=O)C=2(N(C)C=NC=2(N1)))","CN1C=NC2NC(=O)NC(=O)C1=2","InChI=1S/C6H6N4O2/c1-10-2-7-4-3(10)5(11)9-6(12)8-4/h2H,1H3,(H2,8,9,11,12)","PFWLFWPASULGAN-UHFFFAOYSA-N","?","22","mean from 2","a1/apparent","?","basic",0.87
"16736","ClC3(=CC=C(C=2(OC(C1(=CC=C(C)C=C1))=NC=2))C=C3)","CC1C=CC(=CC=1)C1=NC=C(O1)C1C=CC(Cl)=CC=1","InChI=1S/C16H12ClNO/c1-11-2-4-13(5-3-11)16-18-10-15(19-16)12-6-8-14(17)9-7-12/h2-10H,1H3","PUZZFKQKQKFWQF-UHFFFAOYSA-N","?","25","spectrophotometric","b1/apparent","?","basic",0.88
"16453","S(=O)(=O)(NC1(=NC(=CC=N1)C))C2(=CC=C(NC(=O)C)C=C2)","CC1C=CN=C(NS(=O)(=O)C2=CC=C(C=C2)/N=C(\C)/O)N=1","InChI=1S/C13H14N4O3S/c1-9-7-8-14-13(15-9)17-21(19,20)12-5-3-11(4-6-12)16-10(2)18/h3-8H,1-2H3,(H,16,18)(H,14,15,17)","PHFJZKMLXDFUNB-UHFFFAOYSA-N","?","25","potentiometric","b/apparent","?","basic",0.9
"13802","S=C1(NC(=O)NC2(=C1NC=N2))","O=C1NC2N=CNC=2C(=S)N1","InChI=1S/C5H4N4OS/c10-5-8-3-2(4(11)9-5)6-1-7-3/h1H,(H3,6,7,8,9,10,11)","RJOXFJDOUQJOMQ-UHFFFAOYSA-N","?",,"spectrophotometric","a1/apparent","?","basic",0.9
"14376","S(C1(=NC(=CC(N1C)=O)C))C","CC1=CC(=O)N(C)C(=N1)SC","InChI=1S/C7H10N2OS/c1-5-4-6(10)9(2)7(8-5)11-3/h4H,1-3H3","QYXORJXXZRQXTL-UHFFFAOYSA-N","?",,"spectrophotometric","a/apparent","?","basic",0.9
"15556","O1(C(=NC=C1C2(=CC=C(C)C=C2))C3(=CC=CC=C3))","CC1C=CC(=CC=1)C1=CN=C(O1)C1C=CC=CC=1","InChI=1S/C16H13NO/c1-12-7-9-13(10-8-12)15-11-17-16(18-15)14-5-3-2-4-6-14/h2-11H,1H3","VRWPYZSVYGMQJM-UHFFFAOYSA-N","?","25","spectrophotometric","b1/apparent","?","basic",0.91
"17258","ClNCC","CCNCl","InChI=1S/C2H6ClN/c1-2-4-3/h4H,2H2,1H3","ZPQILRVCDUDSEB-UHFFFAOYSA-N","?","25","spectrophotometric","a1/apparent","?","basic",0.93
"12891","N#CC1(=C(N)C=CC=C1)","NC1C=CC=CC=1C#N","InChI=1S/C7H6N2/c8-5-6-3-1-2-4-7(6)9/h1-4H,9H2","HLCPWBZNUKCSBN-UHFFFAOYSA-N","?","25","spectrophotometric","a/apparent","?","basic",0.95
"13834","N=1(C=2(C(N=CC=1C)=CC=CC=2))","CC1C=NC2=CC=CC=C2N=1","InChI=1S/C9H8N2/c1-7-6-10-8-4-2-3-5-9(8)11-7/h2-6H,1H3","ALHUXMDEZNLFTA-UHFFFAOYSA-N","?","20","potentiometric","a/thermodynamic","?","basic",0.95
"15916","O=C2(NC1(=C(N=CN=C1)NC2=C4(NC3(=NC=NC=C3NC4=O))))","O=C1NC2=CN=CN=C2NC1C1=NC2=NC=NC=C2NC1=O","InChI=1S/C12H8N8O2/c21-11-7(19-9-5(17-11)1-13-3-15-9)8-12(22)18-6-2-14-4-16-10(6)20-8/h1-4,7H,(H,17,21)(H,18,22)(H,13,15,19)","HMAUWGMKGRZSQX-UHFFFAOYSA-N","?",,"spectrophotometric","a/apparent","?","basic",1.0
"14983","OC3(=CC=2(N(C1(=C(C=CC=C1)NC=2C=C3))C))","CN1C2C=CC=CC=2NC2C=CC(O)=CC1=2","InChI=1S/C13H12N2O/c1-15-12-5-3-2-4-10(12)14-11-7-6-9(16)8-13(11)15/h2-8,14,16H,1H3","LGBGAPQGKWRWJD-UHFFFAOYSA-N","?","30","potentiometric","a1/apparent","?","basic",1.0
"13284","FC(F)(F)C1(=NC=2(N=CN=CC=2(N1)))","FC(F)(F)C1NC2C=NC=NC=2N=1","InChI=1S/C6H3F3N4/c7-6(8,9)5-12-3-1-10-2-11-4(3)13-5/h1-2H,(H,10,11,12,13)","YGINUNRCDDYFKD-UHFFFAOYSA-N","?",,"spectrophotometric","a1/apparent","?","basic",1.0
"14346","S(=O)(=O)(N)C1(=C(N)C=CC=C1)","NC1C=CC=CC=1S(N)(=O)=O","InChI=1S/C6H8N2O2S/c7-5-3-1-2-4-6(5)11(8,9)10/h1-4H,7H2,(H2,8,9,10)","YAZSBRQTAHVVGE-UHFFFAOYSA-N","?","25","spectrophotometric","a/apparent","?","basic",1.0
"13971","[O-][N+]2(=CC=1(C(=CC=CC=1)C=C2))","[O-][N+]1=CC2=CC=CC=C2C=C1","InChI=1S/C9H7NO/c11-10-6-5-8-3-1-2-4-9(8)7-10/h1-7H","RZIAABRFQASVSW-UHFFFAOYSA-N","?","25","spectrophotometric","a/apparent","?","basic",1.01
"17408","O=C(NC)NC","CNC(=O)NC","InChI=1S/C3H8N2O/c1-4-3(6)5-2/h1-2H3,(H2,4,5,6)","MGJKQDOBUOMPEZ-UHFFFAOYSA-N","?","25","conductometric","a1/apparent","?","basic",1.02
"11546","O=[N+]([O-])C1(=CC=C(N)C=C1)","NC1=CC=C(C=C1)[N+]([O-])=O","InChI=1S/C6H6N2O2/c7-5-1-3-6(4-2-5)8(9)10/h1-4H,7H2","TYMLOMAKGOJONV-UHFFFAOYSA-N","?","25","mean from 12","a1/thermodynamic","N(+)-H","basic",1.03
"15555","O1(C(=NC=C1C2(=CC=CC=C2))C3(=CC=C(C)C=C3))","CC1C=CC(=CC=1)C1=NC=C(O1)C1C=CC=CC=1","InChI=1S/C16H13NO/c1-12-7-9-14(10-8-12)16-17-11-15(18-16)13-5-3-2-4-6-13/h2-11H,1H3","LTGNYHGEFNFIBD-UHFFFAOYSA-N","?","25","spectrophotometric","b1/apparent","?","basic",1.04
"10406","O=C(N(C)C)N(C)C","CN(C)C(=O)N(C)C","InChI=1S/C5H12N2O/c1-6(2)5(8)7(3)4/h1-4H3","AVQQQNCBBIEMEU-UHFFFAOYSA-N","?","25","conductometric","a1/apparent","?","basic",1.04
"16730","O1(C(=NC=C1C2(=CC=C(OC)C=C2))C3(=CC=CC=C3))","COC1=CC=C(C=C1)C1=CN=C(O1)C1C=CC=CC=1","InChI=1S/C16H13NO2/c1-18-14-9-7-12(8-10-14)15-11-17-16(19-15)13-5-3-2-4-6-13/h2-11H,1H3","ONQKZEWRQOTVRA-UHFFFAOYSA-N","?","25","spectrophotometric","b1/apparent","?","basic",1.05
"14869","O=[N+]([O-])C1(=CC=C(N(CCC)CCC)C=C1)","CCCN(CCC)C1C=CC(=CC=1)[N+]([O-])=O","InChI=1S/C12H18N2O2/c1-3-9-13(10-4-2)11-5-7-12(8-6-11)14(15)16/h5-8H,3-4,9-10H2,1-2H3","GZCIRDMRXVOXPH-UHFFFAOYSA-N","?","25","spectrophotometric","b1/apparent","amine","basic",1.06
"13341","OC=1(N(N=C(C=1)C)C2(=CC=CC=C2))","CC1C=C(O)N(N=1)C1C=CC=CC=1","InChI=1S/C10H10N2O/c1-8-7-10(13)12(11-8)9-5-3-2-4-6-9/h2-7,13H,1H3","PLVBQEFRONZLHO-UHFFFAOYSA-N","?","20","spectrophotometric","a/apparent","?","basic",1.07
"13431","N2(=NN(C1(=CC(=CC=C1)C))C(=N2)N)","CC1C=C(C=CC=1)N1N=NN=C1N","InChI=1S/C8H9N5/c1-6-3-2-4-7(5-6)13-8(9)10-11-12-13/h2-5H,1H3,(H2,9,10,12)","FLLOPFVCEBJDLE-UHFFFAOYSA-N","?","25","potentiometric","a/apparent","H+","basic",1.08
"14739","N#CN","NC#N","InChI=1S/CH2N2/c2-1-3/h2H2","XZMCDFZZKTWFGF-UHFFFAOYSA-N","?","29","potentiometric","a/apparent","?","basic",1.1
"16732","O1(C(=NC=C1C2(=CC=C(C)C=C2))C3(=CC=C(C)C=C3))","CC1C=CC(=CC=1)C1=CN=C(O1)C1C=CC(C)=CC=1","InChI=1S/C17H15NO/c1-12-3-7-14(8-4-12)16-11-18-17(19-16)15-9-5-13(2)6-10-15/h3-11H,1-2H3","DLTUYNGYYGWGQO-UHFFFAOYSA-N","?","25","spectrophotometric","b1/apparent","?","basic",1.12
"14729","O=C","C=O","InChI=1S/CH2O/c1-2/h1H2","WSFSSNUMVMOOMR-UHFFFAOYSA-N","?","25","spectrophotometric","a1/apparent","?","basic",1.15
"12470","N(C1(=CC=C(C)C=C1))C2(=CC=CC=C2)","CC1C=CC(=CC=1)NC1C=CC=CC=1","InChI=1S/C13H13N/c1-11-7-9-13(10-8-11)14-12-5-3-2-4-6-12/h2-10,14H,1H3","AGHYMXKKEXDUTA-UHFFFAOYSA-N","?","25","mean from 2","b1/apparent","NH","basic",1.16
"17409","O=C(NCC)N","CCNC(N)=O","InChI=1S/C3H8N2O/c1-2-5-3(4)6/h2H2,1H3,(H3,4,5,6)","RYECOJGRJDOGPP-UHFFFAOYSA-N","?","25","conductometric","a1/apparent","?","basic",1.19
"13306","N#CC=1(C=2(C(C(N)=CC=1)=CC=CC=2))","NC1=CC=C(C#N)C2=CC=CC=C21","InChI=1S/C11H8N2/c12-7-8-5-6-11(13)10-4-2-1-3-9(8)10/h1-6H,13H2","LUSIZUFVMKYWGX-UHFFFAOYSA-N","?","25",,"a1/apparent","RNH3(+)","basic",1.2
"17482","S=C(N([NH3+])C)N","CN(N)C(N)=S","InChI=1S/C2H7N3S/c1-5(4)2(3)6/h4H2,1H3,(H2,3,6)","IIGQLQZSWDUOBI-UHFFFAOYSA-N","?","25","spectrophotometric","a1/apparent","?","basic",1.2
"15922","[NH+]=2(C1(=C(C=CC=C1)C(C=2C)=CC=C3(N(C=4(C=CC=CC=4(C3)))C)))","CC1=NC2=CC=CC=C2C1=CC=C1CC2C=CC=CC=2N1C","InChI=1S/C20H18N2/c1-14-17(18-8-4-5-9-19(18)21-14)12-11-16-13-15-7-3-6-10-20(15)22(16)2/h3-12H,13H2,1-2H3","HPGJVYWJOHOXAK-UHFFFAOYSA-N","?","20","spectrophotometric","a1/apparent","=NH2+","basic",1.22
"17301","ClC=1(C=NNC=1)","ClC1=CNN=C1","InChI=1S/C3H3ClN2/c4-3-1-5-6-2-3/h1-2H,(H,5,6)","BADSZRMNXWLUKO-UHFFFAOYSA-N","?","20","mean from 2","a1/thermodynamic","NH2+","basic",1.24
"16729","O1(C(=NC=C1C2(=CC=CC=C2))C3(=CC=C(OC)C=C3))","COC1C=CC(=CC=1)C1=NC=C(O1)C1C=CC=CC=1","InChI=1S/C16H13NO2/c1-18-14-9-7-13(8-10-14)16-17-11-15(19-16)12-5-3-2-4-6-12/h2-11H,1H3","ZAQGDEAUNXUCQP-UHFFFAOYSA-N","?","25","spectrophotometric","b1/apparent","?","basic",1.25
"12058","S2(C1(=C(C(O)=CC=C1)N=C2))","OC1=CC=CC2SC=NC=21","InChI=1S/C7H5NOS/c9-5-2-1-3-6-7(5)8-4-10-6/h1-4,9H","NZFKDDMHHUEVPI-UHFFFAOYSA-N","?","27","mean from 2","a1/apparent","?","basic",1.25
"16093","S(=O)(=O)(NC1(=NC=NC=C1))C2(=CC=C(N)C=C2)","NC1C=CC(=CC=1)S(=O)(=O)NC1C=CN=CN=1","InChI=1S/C10H10N4O2S/c11-8-1-3-9(4-2-8)17(15,16)14-10-5-6-12-7-13-10/h1-7H,11H2,(H,12,13,14)","PXDBUWPMANSAFI-UHFFFAOYSA-N","?",,"potentiometric","b2/apparent","?","basic",1.3
"16087","S(=O)(=O)(NC1(=NN=CC=C1))C2(=CC=C(N)C=C2)","NC1C=CC(=CC=1)S(=O)(=O)NC1C=CC=NN=1","InChI=1S/C10H10N4O2S/c11-8-3-5-9(6-4-8)17(15,16)14-10-2-1-7-12-13-10/h1-7H,11H2,(H,13,14)","KLXBSPXXUGSWGB-UHFFFAOYSA-N","?",,"potentiometric","b2/apparent","?","basic",1.3
"17291","N1(=CN=CC=C1)","C1N=CC=CN=1","InChI=1S/C4H4N2/c1-2-5-4-6-3-1/h1-4H","CZPWVGJYEJSRLH-UHFFFAOYSA-N","?","20","mean from 2","a1/apparent","NH","basic",1.3
"17597","O1(N=CC=C1)","C1=CC=NO1","InChI=1S/C3H3NO/c1-2-4-5-3-1/h1-3H","CTAPFRYPJLPFDF-UHFFFAOYSA-N","?","25","potentiometric","b/thermodynamic","?","basic",1.31
"12720","N=1(NC=2(C=CC=CC=2(C=1)))","C1=NNC2C=CC=CC=21","InChI=1S/C7H6N2/c1-2-4-7-6(3-1)5-8-9-7/h1-5H,(H,8,9)","BAXOFTOLAUCFNW-UHFFFAOYSA-N","?","20","mean from 3","a1/thermodynamic","?","basic",1.31
"11098","O(C2(=NC=1(C(=CC=CC=1)C=N2)))C","COC1=NC2=CC=CC=C2C=N1","InChI=1S/C9H8N2O/c1-12-9-10-6-7-4-2-3-5-8(7)11-9/h2-6H,1H3","BWYJJZBRYSADRP-UHFFFAOYSA-N","?","20","potentiometric","a/thermodynamic","?","basic",1.31
"15328","O1(C(=NC=C1C2(=CC=C(C)C=C2))C3(=CC=C(OC)C=C3))","CC1C=CC(=CC=1)C1=CN=C(O1)C1C=CC(=CC=1)OC","InChI=1S/C17H15NO2/c1-12-3-5-13(6-4-12)16-11-18-17(20-16)14-7-9-15(19-2)10-8-14/h3-11H,1-2H3","LMQHXDFWJBEHJF-UHFFFAOYSA-N","?","25","spectrophotometric","b1/apparent","?","basic",1.34
"14755","O=C(NCC)C=1(C=2(NC(C=1C)=CC5(=NC(=CC=4(NC(C=C3(N=C(C=2CC(=O)OC)C(C3(C))CCC(=O)OC))=C(C=4(C=C))C))C(=C5CC)C)))","CC1C(CC=C(O)OC)C2=NC1=CC1NC(C=C3N=C(C=C4NC(=C2C=C(O)OC)C(C(=O)NCC)=C4C)C(CC)=C3C)=C(C=C)C=1C |c:17,21,24,27,t:12|","InChI=1S/C38H45N5O5/c1-10-23-19(4)27-16-29-21(6)25(13-14-33(44)47-8)36(42-29)26(15-34(45)48-9)37-35(38(46)39-12-3)22(7)30(43-37)18-32-24(11-2)20(5)28(41-32)17-31(23)40-27/h10,14-18,21,25,40,43-45H,1,11-13H2,2-9H3,(H,39,46)/b27-16?,28-17-,29-16-,30-18-,31-17?,32-18?,33-14?,34-15+,36-26?,37-26-","KWVHPLQCBLMWOW-KYZXNLRJSA-N","?, ?",,"spectrophotometric","a2/apparent","?, ?","basic",1.35
"10222","S=C1(C=CN(C)C=C1)","CN1C=CC(=S)C=C1","InChI=1S/C6H7NS/c1-7-4-2-6(8)3-5-7/h2-5H,1H3","AXSKLZVLVONUIC-UHFFFAOYSA-N","?","20","mean from 2","a/apparent","?","basic",1.36
"13351","O(C2(=NC=1(C(=CC=CC=1)N=C2C)))C","CC1=NC2=CC=CC=C2N=C1OC","InChI=1S/C10H10N2O/c1-7-10(13-2)12-9-6-4-3-5-8(9)11-7/h3-6H,1-2H3","MGDHEFJLEXTPCT-UHFFFAOYSA-N","?",,"spectrophotometric","a/apparent","?","basic",1.38