"Molecule name","OriginalSmiles","Canonical_QSARr","InChI_Code_QSARr","InChI Key_QSARr","Salt_Solvent (Concatenate)","temp","method","type","group","basicOrAcidic","pKa"
"17080","O(C2(=CC=C(NC1(=CC=CC=C1))C=C2))C","COC1C=CC(=CC=1)NC1C=CC=CC=1","InChI=1S/C13H13NO/c1-15-13-9-7-12(8-10-13)14-11-5-3-2-4-6-11/h2-10,14H,1H3","OBHGSIGHEBGGFS-UHFFFAOYSA-N","?","25","mean from 2","b1/apparent","NH","basic",1.38
"12741","S2(C1(=C(C=CC=C1)N=C2))","C1=NC2C=CC=CC=2S1","InChI=1S/C7H5NS/c1-2-4-7-6(3-1)8-5-9-7/h1-5H","IOJUPLGTWVMSFF-UHFFFAOYSA-N","?","85",,"a1/apparent","?","basic",1.38
"13861","OC2(=CC1(=NC=CN=C1C=C2))","OC1=CC2=NC=CN=C2C=C1","InChI=1S/C8H6N2O/c11-6-1-2-7-8(5-6)10-4-3-9-7/h1-5,11H","RQPVXTQTNVVKEJ-UHFFFAOYSA-N","?","20","spectrophotometric","a1/apparent","?","basic",1.4
"14643","OC(C1(=NC=C(C)N=C1))C(O)C(O)CO","CC1=CN=C(C=N1)C(O)C(O)C(O)CO","InChI=1S/C9H14N2O4/c1-5-2-11-6(3-10-5)8(14)9(15)7(13)4-12/h2-3,7-9,12-15H,4H2,1H3","ZHCOCLGEHTXBQU-UHFFFAOYSA-N","?",,"spectrophotometric","a/apparent","?","basic",1.4
"15140","O(C2(=CC=C(NC1(=CC=CC=C1))C=C2))CC","CCOC1C=CC(=CC=1)NC1C=CC=CC=1","InChI=1S/C14H15NO/c1-2-16-14-10-8-13(9-11-14)15-12-6-4-3-5-7-12/h3-11,15H,2H2,1H3","SEKMXHXGKOKENQ-UHFFFAOYSA-N","?","25","mean from 2","b1/apparent","NH","basic",1.41
"15091","O=C(N(C1(=NC=CC=C1))C)C2(=CC=CC=C2)","CN(C(=O)C1C=CC=CC=1)C1C=CC=CN=1","InChI=1S/C13H12N2O/c1-15(12-9-5-6-10-14-12)13(16)11-7-3-2-4-8-11/h2-10H,1H3","WUXNIYVPMJTJRZ-UHFFFAOYSA-N","?",,"spectrophotometric","a/apparent","?","basic",1.44
"13433","N2(=NN(CC1(=CC=CC=C1))C(=N2)N)","NC1=NN=NN1CC1C=CC=CC=1","InChI=1S/C8H9N5/c9-8-10-11-12-13(8)6-7-4-2-1-3-5-7/h1-5H,6H2,(H2,9,10,12)","CGGBUAWMFFPBOD-UHFFFAOYSA-N","?","25","potentiometric","a/apparent","H+","basic",1.44
"12444","O=C1(N(N(C)C(=C1)C)C2(=CC=CC=C2))","CN1C(C)=CC(=O)N1C1C=CC=CC=1","InChI=1S/C11H12N2O/c1-9-8-11(14)13(12(9)2)10-6-4-3-5-7-10/h3-8H,1-2H3","VEQOALNAAJBPNY-UHFFFAOYSA-N","?","23","mean from 9","a1/apparent","?","basic",1.45
"10088","N#CC1(=CN=CC=C1)","N#CC1=CN=CC=C1","InChI=1S/C6H4N2/c7-4-6-2-1-3-8-5-6/h1-3,5H","GZPHSAQLYPIAIN-UHFFFAOYSA-N","?","24","mean from 7","a1/apparent","?","basic",1.48
"17743","ClNCCCCO","OCCCCNCl","InChI=1S/C4H10ClNO/c5-6-3-1-2-4-7/h6-7H,1-4H2","YATNCYMXRVAQPM-UHFFFAOYSA-N","?","25","spectrophotometric","a1/apparent","?","basic",1.49
"12442","O=C1(N(C=NC=C1C2(=CC=CC=C2))C)","CN1C=NC=C(C1=O)C1C=CC=CC=1","InChI=1S/C11H10N2O/c1-13-8-12-7-10(11(13)14)9-5-3-2-4-6-9/h2-8H,1H3","WRZBAWXKHUZCOW-UHFFFAOYSA-N","?","20","spectrophotometric","a/apparent","?","basic",1.5
"13572","S(=O)(=O)(N(C)C)C1(=CC=C(N)C=C1)","CN(C)S(=O)(=O)C1C=CC(N)=CC=1","InChI=1S/C8H12N2O2S/c1-10(2)13(11,12)8-5-3-7(9)4-6-8/h3-6H,9H2,1-2H3","BABGMPQXLCJMSK-UHFFFAOYSA-N","?","25",,"a/apparent","NH3%+&","basic",1.53
"17745","ClNC(CO)CC","CCC(CO)NCl","InChI=1S/C4H10ClNO/c1-2-4(3-7)6-5/h4,6-7H,2-3H2,1H3","JZQISYXNGNOTSP-UHFFFAOYSA-N","?","25","spectrophotometric","a1/apparent","?","basic",1.55
"12162","S(=O)(=O)(NC(=O)C)C1(=CC=C(N)C=C1)","C/C(/O)=N\S(=O)(=O)C1C=CC(N)=CC=1","InChI=1S/C8H10N2O3S/c1-6(11)10-14(12,13)8-4-2-7(9)3-5-8/h2-5H,9H2,1H3,(H,10,11)","SKIVFJLNDNKQPD-UHFFFAOYSA-N","?",,"mean from 2","b/apparent","NH2","basic",1.58
"10986","N=2(NC(C=1(NN=C(C=1)C))=CC=2C)","CC1C=C(NN=1)C1=CC(C)=NN1","InChI=1S/C8H10N4/c1-5-3-7(11-9-5)8-4-6(2)10-12-8/h3-4H,1-2H3,(H,9,11)(H,10,12)","QPMQZGLMSZICKZ-UHFFFAOYSA-N","?, ?","25","spectrophotometric","a1/apparent","?, ?","basic",1.5999999999999999
"12746","N1(=NC=2(C=CC=CC=2(N1)))","C1=CC=CC2NN=NC=21","InChI=1S/C6H5N3/c1-2-4-6-5(3-1)7-9-8-6/h1-4H,(H,7,8,9)","QRUDEWIWKLJBPS-UHFFFAOYSA-N","?","20","potentiometric","a1/apparent","?","basic",1.6
"14504","O=CC1(=CC=C(N(C)C)C=C1)","CN(C)C1C=CC(C=O)=CC=1","InChI=1S/C9H11NO/c1-10(2)9-5-3-8(7-11)4-6-9/h3-7H,1-2H3","BGNGWHSBYQYVRX-UHFFFAOYSA-N","?","30","spectrophotometric","a/apparent","?","basic",1.6
"12259","ClC1(=NC(=NC(=N1)NCC)NC(C)C)","CCNC1N=C(NC(C)C)N=C(Cl)N=1","InChI=1S/C8H14ClN5/c1-4-10-7-12-6(9)13-8(14-7)11-5(2)3/h5H,4H2,1-3H3,(H2,10,11,12,13,14)","MXWJVTOOROXGIU-UHFFFAOYSA-N","?","25","spectrophotometric","a1/thermodynamic","?","basic",1.61
"14336","O=[N+]([O-])C1(=C(C=C(N)C=C1)C)","CC1C=C(N)C=CC=1[N+]([O-])=O","InChI=1S/C7H8N2O2/c1-5-4-6(8)2-3-7(5)9(10)11/h2-4H,8H2,1H3","XPAYEWBTLKOEDA-UHFFFAOYSA-N","?","20","spectrophotometric","a/apparent","?","basic",1.64
"12478","[I+](C1(=CC=C(N)C=C1))C2(=CC=CC=C2)","NC1C=CC(=CC=1)[I+]C1C=CC=CC=1","InChI=1S/C12H11IN/c14-12-8-6-11(7-9-12)13-10-4-2-1-3-5-10/h1-9H,14H2/q+1","TXXVBVJPKMGBGG-UHFFFAOYSA-N","?","24","spectrophotometric","a1/apparent","?","basic",1.66
"17117","O=C(O)C1(=C(ON=C1C)C2(=CC=CC=C2))","CC1=NOC(=C1C(O)=O)C1C=CC=CC=1","InChI=1S/C11H9NO3/c1-7-9(11(13)14)10(15-12-7)8-5-3-2-4-6-8/h2-6H,1H3,(H,13,14)","GLNQCTGGLIXRRJ-UHFFFAOYSA-N","?","25",,"apparent","?","basic",1.7
"14744","ClNC","CNCl","InChI=1S/CH4ClN/c1-3-2/h3H,1H3","QXJIABOUHLYVHP-UHFFFAOYSA-N","?","25","spectrophotometric","a1/apparent","?","basic",1.71
"12477","[Br]C2(=CC=C(NC1(=CC=CC=C1))C=C2)","BrC1C=CC(=CC=1)NC1C=CC=CC=1","InChI=1S/C12H10BrN/c13-10-6-8-12(9-7-10)14-11-4-2-1-3-5-11/h1-9,14H","CCIVUDMVXNBUCY-UHFFFAOYSA-N","?","25","spectrophotometric","b1/apparent","NH","basic",1.73
"13279","N1(=NC=C(N1C)NC2(=CC=CC=C2))","CN1N=NC=C1NC1C=CC=CC=1","InChI=1S/C9H10N4/c1-13-9(7-10-12-13)11-8-5-3-2-4-6-8/h2-7,11H,1H3","ZVDHKSBRWNKJRA-UHFFFAOYSA-N","?",,"spectrophotometric","a/apparent","?","basic",1.73
"12869","N#CC1(=CC=C(N)C=C1)","NC1=CC=C(C=C1)C#N","InChI=1S/C7H6N2/c8-5-6-1-3-7(9)4-2-6/h1-4H,9H2","YBAZINRZQSAIAY-UHFFFAOYSA-N","?","25","mean from 2","b1/apparent","?","basic",1.74
"13100","O=CC1(=CC=C(N)C=C1)","NC1=CC=C(C=C1)C=O","InChI=1S/C7H7NO/c8-7-3-1-6(5-9)2-4-7/h1-5H,8H2","VATYWCRQDJIRAI-UHFFFAOYSA-N","?","24","mean from 2","a/thermodynamic","?","basic",1.74
"12489","O=C(OC)C2(=NC=1(C(=CC=CC=1)C=C2))","COC(=O)C1C=CC2=CC=CC=C2N=1","InChI=1S/C11H9NO2/c1-14-11(13)10-7-6-8-4-2-3-5-9(8)12-10/h2-7H,1H3","CILJSZLWPHTUIP-UHFFFAOYSA-N","?","25","mean from 2","a/thermodynamic","NH%+&","basic",1.75
"16091","S(=O)(=O)(NC1(=NC=CN=C1))C2(=CC=C(N)C=C2)","NC1C=CC(=CC=1)S(=O)(=O)NC1C=NC=CN=1","InChI=1S/C10H10N4O2S/c11-8-1-3-9(4-2-8)17(15,16)14-10-7-12-5-6-13-10/h1-7H,11H2,(H,13,14)","YEAICDDXRUOCKJ-UHFFFAOYSA-N","?",,"potentiometric","b/apparent","?","basic",1.77
"14296","N#CC1(=CC=C(N(C)C)C=C1)","CN(C)C1C=CC(=CC=1)C#N","InChI=1S/C9H10N2/c1-11(2)9-5-3-8(7-10)4-6-9/h3-6H,1-2H3","JYMNQRQQBJIMCV-UHFFFAOYSA-N","?","25","spectrophotometric","a/thermodynamic","?","basic",1.78
"17013","S(=O)(=O)(C1(=CC=CC=C1))C=2(SC(N)=NC=2)","NC1=NC=C(S1)S(=O)(=O)C1C=CC=CC=1","InChI=1S/C9H8N2O2S2/c10-9-11-6-8(14-9)15(12,13)7-4-2-1-3-5-7/h1-6H,(H2,10,11)","ZAORQWZONVPKAF-UHFFFAOYSA-N","?","25","spectrophotometric","a1/thermodynamic","?","basic",1.79
"15510","O3(C(N2(C1(=NC=NC=C1N=C2)))C(O)C(O)C(C3)O)","OC1C(O)COC(C1O)N1C=NC2=CN=CN=C12","InChI=1S/C10H12N4O4/c15-6-2-18-10(8(17)7(6)16)14-4-13-5-1-11-3-12-9(5)14/h1,3-4,6-8,10,15-17H,2H2","ZRIWEAHBJGUYQH-UHFFFAOYSA-N","?",,"spectrophotometric","a/apparent","?","basic",1.8
"15513","O3(C(N1(N=NC=2(C1=C(N)C=CC=2)))CC(C3CO)O)","NC1C=CC=C2N=NN(C3CC(O)C(CO)O3)C2=1","InChI=1S/C11H14N4O3/c12-6-2-1-3-7-11(6)15(14-13-7)10-4-8(17)9(5-16)18-10/h1-3,8-10,16-17H,4-5,12H2","PIUYEDKDBQBEKB-UHFFFAOYSA-N","?","25.1","spectrophotometric","a1/apparent","NH+","basic",1.8
"16311","O=C(N2(C1(=C(C=CC=C1)N=C2)))C3(=CC=CC=C3)","O=C(C1C=CC=CC=1)N1C=NC2C=CC=CC1=2","InChI=1S/C14H10N2O/c17-14(11-6-2-1-3-7-11)16-10-15-12-8-4-5-9-13(12)16/h1-10H","IYVBKVVOHXVKRD-UHFFFAOYSA-N","?","30",,"a1/apparent","?","basic",1.8
"13141","N1(=NN(CCC)C(=N1)N)","CCCN1N=NN=C1N","InChI=1S/C4H9N5/c1-2-3-9-4(5)6-7-8-9/h2-3H2,1H3,(H2,5,6,8)","RUCUYFVAKOESSN-UHFFFAOYSA-N","?","25","potentiometric","a/apparent","H+","basic",1.8
"11087","O=C(N2(C1(=C(C=CC=C1)N=C2)))C","C=C(O)N1C=NC2C=CC=CC1=2","InChI=1S/C9H8N2O/c1-7(12)11-6-10-8-4-2-3-5-9(8)11/h2-6,12H,1H2","XRKBRXWIXAXICQ-UHFFFAOYSA-N","?","30",,"a1/apparent","?","basic",1.8
"17320","N1(=NNC(=N1)N)","NC1NN=NN=1","InChI=1S/CH3N5/c2-1-3-5-6-4-1/h(H3,2,3,4,5,6)","ULRPISSMEBPJLN-UHFFFAOYSA-N","?","24","mean from 2","a1/apparent","H+","basic",1.81
"16210","O=C(N[NH+]=CC1(=CC=CC=C1))C2(=CC=NC=C2)","O=C(N=NCC1C=CC=CC=1)C1C=CN=CC=1","InChI=1S/C13H11N3O/c17-13(12-6-8-14-9-7-12)16-15-10-11-4-2-1-3-5-11/h1-9H,10H2","BTJMDFVCPKYWDE-UHFFFAOYSA-N","?","30",,"a/apparent","?","basic",1.82
"17895","N1(=NN(C)C(=N1)N)","CN1N=NN=C1N","InChI=1S/C2H5N5/c1-7-2(3)4-5-6-7/h1H3,(H2,3,4,6)","GTKOKCQMHAGFSM-UHFFFAOYSA-N","?","25","potentiometric","a/apparent","H+","basic",1.82
"10169","[O-]C1(=[N+](C=NC=C1)C)","C[N+]1=CN=CC=C1O","InChI=1S/C5H6N2O/c1-7-4-6-3-2-5(7)8/h2-4H,1H3/p+1","PSXLJUKMMIHADB-UHFFFAOYSA-O","?","20","potentiometric","a/apparent","?","basic",1.84
"12543","FC(F)(F)C1(=NC(=NC2(=C1NC=N2))N)","NC1N=C(C2NC=NC=2N=1)C(F)(F)F","InChI=1S/C6H4F3N5/c7-6(8,9)3-2-4(12-1-11-2)14-5(10)13-3/h1H,(H3,10,11,12,13,14)","BPGSASFKCZQNNZ-UHFFFAOYSA-N","?",,"spectrophotometric","a1/apparent","?","basic",1.85
"12938","O=[N+]([O-])C1(=CC=NC=C1)","[O-][N+](=O)C1C=CN=CC=1","InChI=1S/C5H4N2O2/c8-7(9)5-1-3-6-4-2-5/h1-4H","FEXIEMAAKBNTFK-UHFFFAOYSA-N","?","25","spectrophotometric","a1/apparent","NH(1+)","basic",1.86
"17831","OC1(=CN=CN=C1)","OC1C=NC=NC=1","InChI=1S/C4H4N2O/c7-4-1-5-3-6-2-4/h1-3,7H","LTXJLQINBYSQFU-UHFFFAOYSA-N","?","20","potentiometric","a1/apparent","?","basic",1.87
"16095","S(=O)(=O)(NC1(=CN=CN=C1))C2(=CC=C(N)C=C2)","NC1C=CC(=CC=1)S(=O)(=O)NC1C=NC=NC=1","InChI=1S/C10H10N4O2S/c11-8-1-3-10(4-2-8)17(15,16)14-9-5-12-7-13-6-9/h1-7,14H,11H2","OIPFAEVFPXYUDR-UHFFFAOYSA-N","?",,"potentiometric","b/apparent","?","basic",1.9
"15512","O3(C(N1(N=NC2(=C1C=CC=C2N)))CC(C3CO)O)","NC1=CC=CC2=C1N=NN2C1CC(O)C(CO)O1","InChI=1S/C11H14N4O3/c12-6-2-1-3-7-11(6)13-14-15(7)10-4-8(17)9(5-16)18-10/h1-3,8-10,16-17H,4-5,12H2","GJMBBLMVGGGSQI-UHFFFAOYSA-N","?","25.1","spectrophotometric","a1/apparent","NH+","basic",1.9
"10103","N#CC1(=CC=NC=C1)","N#CC1C=CN=CC=1","InChI=1S/C6H4N2/c7-5-6-1-3-8-4-2-6/h1-4H","GPHQHTOMRSGBNZ-UHFFFAOYSA-N","?","24","mean from 5","b1/apparent","H","basic",1.91
"13767","S(C2(=NC=1(N=CNC=1C=N2)))C","CSC1=NC2N=CNC=2C=N1","InChI=1S/C6H6N4S/c1-11-6-7-2-4-5(10-6)9-3-8-4/h2-3H,1H3,(H,7,8,9,10)","GEVCSRLIETZLTD-UHFFFAOYSA-N","?","20","potentiometric","a1/apparent","?","basic",1.91
"11701","O=CC1(=NC(=CC=C1)C=O)","O=CC1=CC=CC(C=O)=N1","InChI=1S/C7H5NO2/c9-4-6-2-1-3-7(5-10)8-6/h1-5H","PMWXGSWIOOVHEQ-UHFFFAOYSA-N","?",,"mean from 2","a/apparent","?","basic",1.92
"12463","O=[N+]([O-])C2(=C(O)C1(=NC=CC=C1C=C2))","[O-][N+](=O)C1C=CC2=CC=CN=C2C=1O","InChI=1S/C9H6N2O3/c12-9-7(11(13)14)4-3-6-2-1-5-10-8(6)9/h1-5,12H","RPJWQGVDVSVGPQ-UHFFFAOYSA-N","?","25","spectrophotometric","a1/apparent","H+ of NH+","basic",1.94
"12922","S(C1(=NC(=CC=N1)C))C","CC1=CC=NC(=N1)SC","InChI=1S/C6H8N2S/c1-5-3-4-7-6(8-5)9-2/h3-4H,1-2H3","UCERVHYBSTYCQS-UHFFFAOYSA-N","?",,"potentiometric","a/apparent","?","basic",1.95
"16312","O1(C(=NN=C1C2(=CC=CC=C2))C3(=CC=CC=C3))","C1=CC=CC=C1C1=NN=C(O1)C1C=CC=CC=1","InChI=1S/C14H10N2O/c1-3-7-11(8-4-1)13-15-16-14(17-13)12-9-5-2-6-10-12/h1-10H","DCJKUXYSYJBBRD-UHFFFAOYSA-N","?","25","spectrophotometric","a1/apparent","H+","basic",1.96
"16157","O=C(O)C2(=CC=C(N=CC1(=CC=CC=C1))C=C2)","OC(=O)C1C=CC(=CC=1)N=CC1C=CC=CC=1","InChI=1S/C14H11NO2/c16-14(17)12-6-8-13(9-7-12)15-10-11-4-2-1-3-5-11/h1-10H,(H,16,17)","MREPJQZHXSDMKL-UHFFFAOYSA-N","?","20","spectrophotometric","a1/apparent","COOH","basic",1.97
"14332","O=[N+]([O-])C1(=CC(=C(N)C=C1)C)","CC1C=C(C=CC=1N)[N+]([O-])=O","InChI=1S/C7H8N2O2/c1-5-4-6(9(10)11)2-3-7(5)8/h2-4H,8H2,1H3","XTTIQGSLJBWVIV-UHFFFAOYSA-N","?","19","mean from 2","a/apparent","?","basic",1.97
"12449","O=C1(N=CN(C)C=C1C2(=CC=CC=C2))","CN1C=NC(=O)C(=C1)C1C=CC=CC=1","InChI=1S/C11H10N2O/c1-13-7-10(11(14)12-8-13)9-5-3-2-4-6-9/h2-8H,1H3","UKOIGGVSHGKQBJ-UHFFFAOYSA-N","?","20","spectrophotometric","a/apparent","?","basic",1.99
"16963","N=1(N(C(C)=CC=1CN2(N=C(C)C=C2C))C)","CN1N=C(CN2N=C(C)C=C2C)C=C1C","InChI=1S/C11H16N4/c1-8-5-10(3)15(12-8)7-11-6-9(2)14(4)13-11/h5-6H,7H2,1-4H3","WQBGKYOMACDZNR-UHFFFAOYSA-N","?, ?","25","potentiometric","a1/apparent","?, ?","basic",1.995
"16089","S(=O)(=O)(NC1(=NC=CC=N1))C2(=CC=C(N)C=C2)","NC1C=CC(=CC=1)S(=O)(=O)NC1N=CC=CN=1","InChI=1S/C10H10N4O2S/c11-8-2-4-9(5-3-8)17(15,16)14-10-12-6-1-7-13-10/h1-7H,11H2,(H,12,13,14)","SEEPANYCNGTZFQ-UHFFFAOYSA-N","?","25","potentiometric","a/apparent","?","basic",2.0
"17029","O=C(N2(C1(=C(C=CC=C1)N=C2)))C(C)(C)C","CC(C)(C)C(=O)N1C=NC2C=CC=CC1=2","InChI=1S/C12H14N2O/c1-12(2,3)11(15)14-8-13-9-6-4-5-7-10(9)14/h4-8H,1-3H3","QZRZEIUOPNQCBX-UHFFFAOYSA-N","?","30",,"a1/apparent","?","basic",2.0
"14356","O=C(N(C1(=NC=CC=C1))C)C","CN(C(=C)O)C1C=CC=CN=1","InChI=1S/C8H10N2O/c1-7(11)10(2)8-5-3-4-6-9-8/h3-6,11H,1H2,2H3","RLNXFXCOWDYMTF-UHFFFAOYSA-N","?",,"spectrophotometric","a/apparent","?","basic",2.01
"15452","S(=O)(=O)(NC1(=NC=CC=C1))C2(=CC=C(NC(=O)C)C=C2)","C/C(/O)=N\C1C=CC(=CC=1)S(=O)(=O)NC1=CC=CC=N1","InChI=1S/C13H13N3O3S/c1-10(17)15-11-5-7-12(8-6-11)20(18,19)16-13-4-2-3-9-14-13/h2-9H,1H3,(H,14,16)(H,15,17)","CYLYVXPHAQLXFG-UHFFFAOYSA-N","?",,"potentiometric","b/apparent","?","basic",2.03
"11051","N#CC=1(C=2(C(C=NC=1)=CC=CC=2))","N#CC1=CN=CC2=CC=CC=C21","InChI=1S/C10H6N2/c11-5-9-7-12-6-8-3-1-2-4-10(8)9/h1-4,6-7H","NPDZTCFGRSYTPF-UHFFFAOYSA-N","?","25","spectrophotometric","a1/thermodynamic","N(+)-H","basic",2.04
"16296","S2(C1(=NC=NC(=C1NC(C2)=O)N3(CCOCC3)))","OC1CSC2=NC=NC(=C2N=1)N1CCOCC1","InChI=1S/C10H12N4O2S/c15-7-5-17-10-8(13-7)9(11-6-12-10)14-1-3-16-4-2-14/h6H,1-5H2,(H,13,15)","NXZMSMVSXOXJBF-UHFFFAOYSA-N","?","20","spectrophotometric","a1/apparent","?","basic",2.07
"13031","ClC1(=C(N)C=CC(=C1)Cl)","NC1C=CC(Cl)=CC=1Cl","InChI=1S/C6H5Cl2N/c7-4-1-2-6(9)5(8)3-4/h1-3H,9H2","KQCMTOWTPBNWDB-UHFFFAOYSA-N","?","24","mean from 2","a/thermodynamic","H+","basic",2.07
"15690","S(=O)(=O)(NC1(=NC(=CC=N1)C))C2(=CC=C(N)C=C2)","CC1=CC=NC(NS(=O)(=O)C2C=CC(N)=CC=2)=N1","InChI=1S/C11H12N4O2S/c1-8-6-7-13-11(14-8)15-18(16,17)10-4-2-9(12)3-5-10/h2-7H,12H2,1H3,(H,13,14,15)","QPPBRPIAZZHUNT-UHFFFAOYSA-N","?","25","potentiometric","a/apparent","?","basic",2.08
"12961","O=C1(N(C=NC(=C1)C)C)","CC1=CC(=O)N(C)C=N1","InChI=1S/C6H8N2O/c1-5-3-6(9)8(2)4-7-5/h3-4H,1-2H3","NMCZEDGETGCRIZ-UHFFFAOYSA-N","?",,"potentiometric","a/apparent","?","basic",2.1
"17139","O=C(NN=CC1(=NC=NC2(=C1NC=N2)))N","NC(=O)N=NCC1=NC=NC2N=CNC=21","InChI=1S/C7H7N7O/c8-7(15)14-13-1-4-5-6(11-2-9-4)12-3-10-5/h2-3H,1H2,(H2,8,15)(H,9,10,11,12)","FMRAFOIJJSXXBF-UHFFFAOYSA-N","?",,"spectrophotometric","a1/apparent","?","basic",2.1
"14344","S(=O)(=O)(N)C1(=CC=C(N)C=C1)","NC1C=CC(=CC=1)S(N)(=O)=O","InChI=1S/C6H8N2O2S/c7-5-1-3-6(4-2-5)11(8,9)10/h1-4H,7H2,(H2,8,9,10)","FDDDEECHVMSUSB-UHFFFAOYSA-N","?","24","mean from 3","a/apparent","?","basic",2.11
"11993","N=1(N(C=C2(C=1C=CC=C2))C)","CN1C=C2C=CC=CC2=N1","InChI=1S/C8H8N2/c1-10-6-7-4-2-3-5-8(7)9-10/h2-6H,1H3","OAZHXZJUWHKFMP-UHFFFAOYSA-N","?","25",,"a1/apparent","?","basic",2.13
"15100","O=C(C1(=CC=C(N)C=C1))C2(=CC=C(N)C=C2)","NC1C=CC(=CC=1)C(=O)C1C=CC(N)=CC=1","InChI=1S/C13H12N2O/c14-11-5-1-9(2-6-11)13(16)10-3-7-12(15)8-4-10/h1-8H,14-15H2","ZLSMCQSGRWNEGX-UHFFFAOYSA-N","?, ?","25","spectrophotometric","a2/thermodynamic","?, ?","basic",2.145
"12494","O(C2(=CC1(=C(C=CN(C1O)C)C=C2)))C","CN1C=CC2C=CC(=CC=2C1O)OC","InChI=1S/C11H13NO2/c1-12-6-5-8-3-4-9(14-2)7-10(8)11(12)13/h3-7,11,13H,1-2H3","SXFUOPZOEZXSJY-UHFFFAOYSA-N","?","21","potentiometric","b/apparent","?","basic",2.15
"16656","N(=NC1(=CC=C(N(C)C)C=C1))C2(=CC(=CC=C2)CC)","CCC1C=C(C=CC=1)N=NC1C=CC(=CC=1)N(C)C","InChI=1S/C16H19N3/c1-4-13-6-5-7-15(12-13)18-17-14-8-10-16(11-9-14)19(2)3/h5-12H,4H2,1-3H3","QTNNZELQKWUFTO-UHFFFAOYSA-N","?","24","spectrophotometric","a1/apparent","?","basic",2.16
"11022","O=C1(N(C=NC2(=C1N(C=N2)C))C)","CN1C=NC2N=CN(C)C(=O)C1=2","InChI=1S/C7H8N4O/c1-10-3-8-6-5(10)7(12)11(2)4-9-6/h3-4H,1-2H3","ZIVNUESELYYTHV-UHFFFAOYSA-N","?",,"potentiometric","a/apparent","?","basic",2.16
"16085","S(=O)(=O)(NC=1(SC(C)=NN=1))C2(=CC=C(N)C=C2)","CC1=NN=C(NS(=O)(=O)C2C=CC(N)=CC=2)S1","InChI=1S/C9H10N4O2S2/c1-6-11-12-9(16-6)13-17(14,15)8-4-2-7(10)3-5-8/h2-5H,10H2,1H3,(H,12,13)","VACCAVUAMIDAGB-UHFFFAOYSA-N","?",,"potentiometric","a/apparent","?","basic",2.19
"16001","N2(=NC=1(C(=CC=CC=1)C=3(C2=CC=CC=3)))","C1C=CC=C2C3=CC=CC=C3N=NC2=1","InChI=1S/C12H8N2/c1-3-7-11-9(5-1)10-6-2-4-8-12(10)14-13-11/h1-8H","SWJXWSAKHXBQSY-UHFFFAOYSA-N","?","20","spectrophotometric","a/apparent","?","basic",2.2
"13795","O(C1(=NC=NC2(=C1NC=N2)))C","COC1=NC=NC2N=CNC=21","InChI=1S/C6H6N4O/c1-11-6-4-5(8-2-7-4)9-3-10-6/h2-3H,1H3,(H,7,8,9,10)","GOILPRCCOREWQE-UHFFFAOYSA-N","?","20","potentiometric","a1/apparent","?","basic",2.21
"11699","O=C(OC)C1(=NC=CC=C1)","COC(=O)C1C=CC=CN=1","InChI=1S/C7H7NO2/c1-10-7(9)6-4-2-3-5-8-6/h2-5H,1H3","NMMIHXMBOZYNET-UHFFFAOYSA-N","?","22","potentiometric","a/thermodynamic","NH+","basic",2.21
"12567","O=[N+]([O-])C2(=CC=1(N=C(CO)NC=1C=C2))","[O-][N+](=O)C1=CC2N=C(CO)NC=2C=C1","InChI=1S/C8H7N3O3/c12-4-8-9-6-2-1-5(11(13)14)3-7(6)10-8/h1-3,12H,4H2,(H,9,10)","ZJLPIDVKNQXTKN-UHFFFAOYSA-N","?","20","potentiometric","a1/apparent","?","basic",2.21
"11786","ClC1(=CC=C(NCO)C=C1)","OCNC1C=CC(Cl)=CC=1","InChI=1S/C7H8ClNO/c8-6-1-3-7(4-2-6)9-5-10/h1-4,9-10H,5H2","JMYTZBBFUKQZLQ-UHFFFAOYSA-N","?","25","spectrophotometric","a1/thermodynamic","?","basic",2.22
"10134","ClC=1(C(=NNC=1C)C)","CC1=NNC(C)=C1Cl","InChI=1S/C5H7ClN2/c1-3-5(6)4(2)8-7-3/h1-2H3,(H,7,8)","JGTUBTJLRQIMAB-UHFFFAOYSA-N","?","20","potentiometric","a1/apparent","=N-H","basic",2.23
"16128","S(=O)(=O)(NCC=1(OC=CC=1))C2(=CC=C(N)C=C2)","NC1=CC=C(C=C1)S(=O)(=O)NCC1=CC=CO1","InChI=1S/C11H12N2O3S/c12-9-3-5-11(6-4-9)17(14,15)13-8-10-2-1-7-16-10/h1-7,13H,8,12H2","GDZYTNDTKOAWSN-UHFFFAOYSA-N","?",,"potentiometric","b/apparent","NH2","basic",2.25
"12956","O=C(N)C1(=NC=CC=C1)","NC(=O)C1C=CC=CN=1","InChI=1S/C6H6N2O/c7-6(9)5-3-1-2-4-8-5/h1-4H,(H2,7,9)","IBBMAWULFFBRKK-UHFFFAOYSA-N","?","24","mean from 2","a/apparent","?","basic",2.25
"15038","[N+]3(=CC=C(C1(=NC=2(C=CC=CC=2(N1))))C=C3)(C)","C[N+]1C=CC(=CC=1)C1NC2C=CC=CC=2N=1","InChI=1S/C13H11N3/c1-16-8-6-10(7-9-16)13-14-11-4-2-3-5-12(11)15-13/h2-9H,1H3/p+1","QFLATZNEOVQJFV-UHFFFAOYSA-O","?","25","spectrophotometric","a1/apparent","NH","basic",2.26
"12545","O=C(OC)NC1(=NC=NC2(=C1NC=N2))","COC(=O)NC1=NC=NC2N=CNC=21","InChI=1S/C7H7N5O2/c1-14-7(13)12-6-4-5(9-2-8-4)10-3-11-6/h2-3H,1H3,(H2,8,9,10,11,12,13)","ZIXLQZZOPCEFIK-UHFFFAOYSA-N","?",,"spectrophotometric","a1/apparent","?","basic",2.27
"11762","O=C(C1(=CC=C(N)C=C1))C","C=C(O)C1C=CC(N)=CC=1","InChI=1S/C8H9NO/c1-6(10)7-2-4-8(9)5-3-7/h2-5,10H,1,9H2","XWDWIXXXXVHYPY-UHFFFAOYSA-N","?","23","mean from 4","a1/apparent","-NH3(1+)","basic",2.27
"17865","SC1(=CN=CC=C1)","SC1=CN=CC=C1","InChI=1S/C5H5NS/c7-5-2-1-3-6-4-5/h1-4,7H","FFWJHVGUAKWTKW-UHFFFAOYSA-N","?","20","potentiometric","a1/apparent","proton.","basic",2.28
"11987","N1(=NC=CC=2(C1=CC=CC=2))","C1=CN=NC2=CC=CC=C21","InChI=1S/C8H6N2/c1-2-4-8-7(3-1)5-6-9-10-8/h1-6H","WCZVZNOTHYJIEI-UHFFFAOYSA-N","?","20","potentiometric","a/apparent","?","basic",2.29
"16205","S(=O)(=O)(NC1(=CN=CC=C1))C2(=CC=C(N)C=C2)","NC1C=CC(=CC=1)S(=O)(=O)NC1=CN=CC=C1","InChI=1S/C11H11N3O2S/c12-9-3-5-11(6-4-9)17(15,16)14-10-2-1-7-13-8-10/h1-8,14H,12H2","ZLXWFOCBHASDIJ-UHFFFAOYSA-N","?, ?",,"potentiometric","b1/apparent","?, ?","basic",2.295
"17317","O1(N=CC=C1C)","CC1=CC=NO1","InChI=1S/C4H5NO/c1-4-2-3-5-6-4/h2-3H,1H3","AGQOIYCTCOEHGR-UHFFFAOYSA-N","?","25","potentiometric","b/apparent","?","basic",2.3
"17324","N=1(N(C=NC=1)C)","CN1C=NC=N1","InChI=1S/C3H5N3/c1-6-3-4-2-5-6/h2-3H,1H3","MWZDIEIXRBWPLG-UHFFFAOYSA-N","?","25","potentiometric","a1/apparent","?","basic",2.31
"11752","O=C(C1(=C(N)C=CC=C1))C","C=C(O)C1C=CC=CC=1N","InChI=1S/C8H9NO/c1-6(10)7-4-2-3-5-8(7)9/h2-5,10H,1,9H2","XEKQYNMFDWLOSE-UHFFFAOYSA-N","?","25","mean from 2","a/apparent","?","basic",2.31