"Molecule name","OriginalSmiles","Canonical_QSARr","InChI_Code_QSARr","InChI Key_QSARr","Salt_Solvent (Concatenate)","temp","method","type","group","basicOrAcidic","pKa"
"15775","N(=NC1(=CC=C(N(C)C)C=C1))C2(=CC(=CC=C2)C)","CC1C=C(C=CC=1)N=NC1C=CC(=CC=1)N(C)C","InChI=1S/C15H17N3/c1-12-5-4-6-14(11-12)17-16-13-7-9-15(10-8-13)18(2)3/h4-11H,1-3H3","LVTFSVIRYMXRSR-UHFFFAOYSA-N","?","24","spectrophotometric","a1/apparent","?","basic",2.33
"13912","SC=1(C=NC2(=CC=CC=C2(C=1)))","SC1=CC2=CC=CC=C2N=C1","InChI=1S/C9H7NS/c11-8-5-7-3-1-2-4-9(7)10-6-8/h1-6,11H","ZPKXXXUAUKOZJA-UHFFFAOYSA-N","?","20","spectrophotometric","a1/apparent","?","basic",2.33
"12474","ClC2(=CC(NC1(=CC=CC=C1))=CC=C2)","ClC1=CC(=CC=C1)NC1C=CC=CC=1","InChI=1S/C12H10ClN/c13-10-5-4-8-12(9-10)14-11-6-2-1-3-7-11/h1-9,14H","OHHIBZKYXJDQEU-UHFFFAOYSA-N","?","25","mean from 2","b1/apparent","NH","basic",2.34
"17760","O=C(NN)CC#N","N/N=C(/O)\CC#N","InChI=1S/C3H5N3O/c4-2-1-3(7)6-5/h1,5H2,(H,6,7)","HPHBOJANXDKUQD-UHFFFAOYSA-N","?","20","potentiometric","a1/apparent","?","basic",2.34
"13410","O(C1(=NC=CC=C1))C2(=CC=CC=C2)","C1=CC=CC=C1OC1C=CC=CN=1","InChI=1S/C11H9NO/c1-2-6-10(7-3-1)13-11-8-4-5-9-12-11/h1-9H","MEAAWTRWNWSLPF-UHFFFAOYSA-N","?","25","spectrophotometric","a1/apparent","?","basic",2.35
"13359","O=C(NC1(=NC=NC2(=C1NC=N2)))N","NC(=O)NC1=NC=NC2N=CNC=21","InChI=1S/C6H6N6O/c7-6(13)12-5-3-4(9-1-8-3)10-2-11-5/h1-2H,(H4,7,8,9,10,11,12,13)","SWHVLOSJGVXZDK-UHFFFAOYSA-N","?",,"spectrophotometric","a1/apparent","?","basic",2.35
"15169","S(=O)(=O)(NC=1(SC=CN=1))C2(=CC=C(N)C=C2)","NC1C=CC(=CC=1)S(=O)(=O)NC1=NC=CS1","InChI=1S/C9H9N3O2S2/c10-7-1-3-8(4-2-7)16(13,14)12-9-11-5-6-15-9/h1-6H,10H2,(H,11,12)","JNMRHUJNCSQMMB-UHFFFAOYSA-N","?","20","potentiometric","b/apparent","?","basic",2.35
"16346","S3(C(C1(=NC=2(C=C([N+](=O)[O-])C=CC=2(N1))))=CC=C3)","[O-][N+](=O)C1=CC2N=C(NC=2C=C1)C1=CC=CS1","InChI=1S/C11H7N3O2S/c15-14(16)7-3-4-8-9(6-7)13-11(12-8)10-2-1-5-17-10/h1-6H,(H,12,13)","HMNHLRCFIFTELE-UHFFFAOYSA-N","?","20","potentiometric","a1/apparent","?","basic",2.36
"15450","O2(CC1(=NNC(=N1)COCCOCCOCCOCC2))","C1OCCOCCOCCOCCOCC2NN=C1N=2","InChI=1S/C12H21N3O5/c1-3-17-5-7-19-9-11-13-12(15-14-11)10-20-8-6-18-4-2-16-1/h1-10H2,(H,13,14,15)","KGZKDAWIHUVEKM-UHFFFAOYSA-N","?","25","potentiometric","b2/apparent","NH-H(1+)","basic",2.36
"10306","N=1(N(C=NC=1)CCC)","CCCN1C=NC=N1","InChI=1S/C5H9N3/c1-2-3-8-5-6-4-7-8/h4-5H,2-3H2,1H3","CUOVNMDNRAZFDH-UHFFFAOYSA-N","?","25","potentiometric","a1/apparent","?","basic",2.36
"15012","O(C2(=NC=1(C(=CC=CC=1)C=3(C2=CC=CC=3))))C","COC1=NC2=CC=CC=C2C2=CC=CC=C21","InChI=1S/C14H11NO/c1-16-14-12-8-3-2-6-10(12)11-7-4-5-9-13(11)15-14/h2-9H,1H3","CFXXLOSWIXYUGN-UHFFFAOYSA-N","?","20","spectrophotometric","a/apparent","NH%+&","basic",2.38
"17904","N=1(N(C=NC=1)CC)","CCN1C=NC=N1","InChI=1S/C4H7N3/c1-2-7-4-5-3-6-7/h3-4H,2H2,1H3","FEOIYPLRWRCSMS-UHFFFAOYSA-N","?","25","potentiometric","a1/apparent","?","basic",2.39
"12445","O=C2(N(N(C1(=CC=CC=C1))C(=C2)C)C)","CN1C(=O)C=C(C)N1C1C=CC=CC=1","InChI=1S/C11H12N2O/c1-9-8-11(14)12(2)13(9)10-6-4-3-5-7-10/h3-8H,1-2H3","XYZAGMNEGKHCLP-UHFFFAOYSA-N","?",,"potentiometric","b/apparent","?","basic",2.4
"15579","[O-][N+]2(=C(N)C=1(N(C=NC=1N=C2)CC3(=CC=CC=C3)))","NC1C2=C(N=C[N+]=1[O-])N=CN2CC1C=CC=CC=1","InChI=1S/C12H11N5O/c13-11-10-12(15-8-17(11)18)14-7-16(10)6-9-4-2-1-3-5-9/h1-5,7-8H,6,13H2","FNQKXTIIESJQRP-UHFFFAOYSA-N","?","30","spectrophotometric","b1/apparent","?","basic",2.4
"16115","O=C1(N(N(C)C(=C1C(C)C)C)C2(=CC=CC=C2))","CN1C(C)=C(C(C)C)C(=O)N1C1C=CC=CC=1","InChI=1S/C14H18N2O/c1-10(2)13-11(3)15(4)16(14(13)17)12-8-6-5-7-9-12/h5-10H,1-4H3","PXWLVJLKJGVOKE-UHFFFAOYSA-N","?",,"potentiometric","b/apparent","?","basic",2.4
"13793","O=CC1(=NC=NC2(=C1NC=N2))","O=CC1=NC=NC2N=CNC=21","InChI=1S/C6H4N4O/c11-1-4-5-6(9-2-7-4)10-3-8-5/h1-3H,(H,7,8,9,10)","NQFHKZPSNYOBIR-UHFFFAOYSA-N","?",,"spectrophotometric","a1/apparent","?","basic",2.4
"13595","[Br]C=1(C(=O)N(N)C=C(C=1)C(=O)OC)","COC(=O)C1C=C(Br)C(=O)N(N)C=1","InChI=1S/C7H7BrN2O3/c1-13-7(12)4-2-5(8)6(11)10(9)3-4/h2-3H,9H2,1H3","DGPGLECIBLAUML-UHFFFAOYSA-N","?",,,"a/apparent","?","basic",2.4
"11579","O=C(NC)C1(=NC=CC=C1)","CNC(=O)C1C=CC=CN=1","InChI=1S/C7H8N2O/c1-8-7(10)6-4-2-3-5-9-6/h2-5H,1H3,(H,8,10)","HXXAUIXTYRHFNO-UHFFFAOYSA-N","?","25","potentiometric","a/apparent","?","basic",2.4
"14359","O=C(NCC)C1(=NC=CC=C1)","CCNC(=O)C1C=CC=CN=1","InChI=1S/C8H10N2O/c1-2-9-8(11)7-5-3-4-6-10-7/h3-6H,2H2,1H3,(H,9,11)","CYHDKNQVKVBPNY-UHFFFAOYSA-N","?","25","potentiometric","a/apparent","?","basic",2.4
"11697","O=C(O)C1(=CC=C(N)C=C1)","NC1=CC=C(C=C1)C(O)=O","InChI=1S/C7H7NO2/c8-6-3-1-5(2-4-6)7(9)10/h1-4H,8H2,(H,9,10)","ALYNCZNDIQEVRV-UHFFFAOYSA-N","?","24","mean from 10","a1/thermodynamic","COOH","basic",2.41
"11957","N2(=C1(N(C=NC1=CN=C2)C))","CN1C=NC2=CN=CN=C12","InChI=1S/C6H6N4/c1-10-4-9-5-2-7-3-8-6(5)10/h2-4H,1H3","VRZWCYZJGUYTKU-UHFFFAOYSA-N","?","20","mean from 2","a/apparent","?","basic",2.42
"13790","O(C2(=NC=1(N=CNC=1C=N2)))C","COC1=NC2N=CNC=2C=N1","InChI=1S/C6H6N4O/c1-11-6-7-2-4-5(10-6)9-3-8-4/h2-3H,1H3,(H,7,8,9,10)","HKCXKNGHGLCFHK-UHFFFAOYSA-N","?","20","potentiometric","a1/apparent","?","basic",2.44
"12718","N2(=C1(N=CNC1=CN=C2))","C1N=C2N=CNC2=CN=1","InChI=1S/C5H4N4/c1-4-5(8-2-6-1)9-3-7-4/h1-3H,(H,6,7,8,9)","KDCGOANMDULRCW-UHFFFAOYSA-N","?","20","mean from 2","a1/apparent","?","basic",2.45
"12009","S1(N=C(N)C2(=C1C=CC=C2))","NC1=NSC2C=CC=CC=21","InChI=1S/C7H6N2S/c8-7-5-3-1-2-4-6(5)10-9-7/h1-4H,(H2,8,9)","WIJQCPIRWXSWQG-UHFFFAOYSA-N","?","25","potentiometric","a1/apparent","?","basic",2.45
"11650","IC1(=C(N)C=CC(=C1)SC)","CSC1C=CC(N)=C(I)C=1","InChI=1S/C7H8INS/c1-10-5-2-3-7(9)6(8)4-5/h2-4H,9H2,1H3","GSOYWOHDSKTUTO-UHFFFAOYSA-N","?","30","spectrophotometric","a1/apparent","?","basic",2.45
"15895","S(=O)(C3(=CC(OC)=C(C=1(N=C2(C(OC)=NC=CN2(C=1))))C=C3))C","COC1=NC=CN2C=C(N=C21)C1C=CC(=CC=1OC)S(C)=O","InChI=1S/C15H15N3O3S/c1-20-13-8-10(22(3)19)4-5-11(13)12-9-18-7-6-16-15(21-2)14(18)17-12/h4-9H,1-3H3","YKUBOCRRRWAZOM-UHFFFAOYSA-N","?","25","spectrophotometric","a1/apparent","N1-H","basic",2.46
"12196","O=C(OCCCC)C1(=CC=C(N)C=C1)","CCCCOC(=O)C1C=CC(N)=CC=1","InChI=1S/C11H15NO2/c1-2-3-8-14-11(13)9-4-6-10(12)7-5-9/h4-7H,2-3,8,12H2,1H3","IUWVALYLNVXWKX-UHFFFAOYSA-N","?","25","spectrophotometric","a/thermodynamic","?","basic",2.47
"10709","S(C1(=C([N+](=O)[O-])C=C(N)C=C1))C","CSC1C=CC(N)=CC=1[N+]([O-])=O","InChI=1S/C7H8N2O2S/c1-12-7-3-2-5(8)4-6(7)9(10)11/h2-4H,8H2,1H3","MDMPPCKRDMAIFX-UHFFFAOYSA-N","?","30","spectrophotometric","a1/apparent","?","basic",2.47
"13639","O=C(OCCC)C1(=CC=C(N)C=C1)","CCCOC(=O)C1C=CC(N)=CC=1","InChI=1S/C10H13NO2/c1-2-7-13-10(12)8-3-5-9(11)6-4-8/h3-6H,2,7,11H2,1H3","NBFQYHKHPBMJJV-UHFFFAOYSA-N","?","25","spectrophotometric","a/thermodynamic","?","basic",2.49
"13030","[Br]C1(=CC([Br])=CC(=C1)N)","NC1C=C(Br)C=C(Br)C=1","InChI=1S/C6H5Br2N/c7-4-1-5(8)3-6(9)2-4/h1-3H,9H2","RVNUUWJGSOHMRR-UHFFFAOYSA-N","?","16","mean from 2","a/apparent","?","basic",2.49
"15238","O=C(N)C1(=C(N=NC(=C1)C2(=CC=CC=C2))NCC[NH+]3(CCOCC3))","NC(=O)C1=CC(=NN=C1NCCN1CCOCC1)C1C=CC=CC=1","InChI=1S/C17H21N5O2/c18-16(23)14-12-15(13-4-2-1-3-5-13)20-21-17(14)19-6-7-22-8-10-24-11-9-22/h1-5,12H,6-11H2,(H2,18,23)(H,19,21)","QSTBBPFYHIWPJJ-UHFFFAOYSA-N","?","25","potentiometric","a2/apparent","?","basic",2.5
"10168","[O-]C1(=[N+](C=CC=N1)C)","C[N+]1=CC=CN=C1O","InChI=1S/C5H6N2O/c1-7-4-2-3-6-5(7)8/h2-4H,1H3/p+1","LQKMCBPMBNUKSU-UHFFFAOYSA-O","?","20","potentiometric","a/apparent","?","basic",2.5
"10165","O(C1(=NC=NC=C1))C","COC1C=CN=CN=1","InChI=1S/C5H6N2O/c1-8-5-2-3-6-4-7-5/h2-4H,1H3","PENVYHXKYYCYML-UHFFFAOYSA-N","?","20","potentiometric","a/apparent","?","basic",2.5
"11958","N2(=C1(N(N=CC1=CN=C2)C))","CN1N=CC2=CN=CN=C12","InChI=1S/C6H6N4/c1-10-6-5(3-9-10)2-7-4-8-6/h2-4H,1H3","MCLXGVNIBMHMNS-UHFFFAOYSA-N","?","20","spectrophotometric","a/apparent","?","basic",2.5
"11024","O(C1(=NC=NC2(=C1C=NN2C)))C","COC1=NC=NC2=C1C=NN2C","InChI=1S/C7H8N4O/c1-11-6-5(3-10-11)7(12-2)9-4-8-6/h3-4H,1-2H3","XBCWBPFCXQJNMD-UHFFFAOYSA-N","?","20","spectrophotometric","a/apparent","?","basic",2.51
"10164","O(C1(=NN=CC=C1))C","COC1C=CC=NN=1","InChI=1S/C5H6N2O/c1-8-5-3-2-4-6-7-5/h2-4H,1H3","ASFHDLDAWYTMJS-UHFFFAOYSA-N","?","20","potentiometric","a/apparent","?","basic",2.52
"13823","N=1(C=2(C(C(C)=NC=1)=CC=CC=2))","CC1=NC=NC2=CC=CC=C21","InChI=1S/C9H8N2/c1-7-8-4-2-3-5-9(8)11-6-10-7/h2-6H,1H3","JWEOEZZCZCCPJL-UHFFFAOYSA-N","?","20","potentiometric","a/apparent","?","basic",2.52
"16028","N=2(C1(=C(C=CC=C1)N3(C=2C[NH+](C)CC3)))","CN1CC2=NC3=CC=CC=C3N2CC1","InChI=1S/C11H13N3/c1-13-6-7-14-10-5-3-2-4-9(10)12-11(14)8-13/h2-5H,6-8H2,1H3","IYOLRZWFJQGDNY-UHFFFAOYSA-N","?","20",,"a1/apparent","?","basic",2.55
"17237","[Se](=O)(C)C","C[Se](C)=O","InChI=1S/C2H6OSe/c1-4(2)3/h1-2H3","OOYOEHGKYKMRJI-UHFFFAOYSA-N","?","20","potentiometric","a/thermodynamic","H+","basic",2.55
"11648","ClC1(=C(N)C=CC(=C1)SC)","CSC1C=CC(N)=C(Cl)C=1","InChI=1S/C7H8ClNS/c1-10-5-2-3-7(9)6(8)4-5/h2-4H,9H2,1H3","KRUHTUDNYPGJDP-UHFFFAOYSA-N","?","30","spectrophotometric","a1/apparent","?","basic",2.56
"10263","S1(C(=NC=C1)C(=O)O)","OC(=O)C1=NC=CS1","InChI=1S/C4H3NO2S/c6-4(7)3-5-1-2-8-3/h1-2H,(H,6,7)","IJVLVRYLIMQVDD-UHFFFAOYSA-N","?","25","mean from 3","a1/apparent","?","basic",2.57
"10808","O=C(O)C1(=CC=C(N(C)C)C=C1)","CN(C)C1C=CC(=CC=1)C(O)=O","InChI=1S/C9H11NO2/c1-10(2)8-5-3-7(4-6-8)9(11)12/h3-6H,1-2H3,(H,11,12)","YDIYEOMDOWUDTJ-UHFFFAOYSA-N","?","25","spectrophotometric","a1/thermodynamic","NH+","basic",2.57
"16498","N(=NC1(=CC=C(N(C)C)C=C1))C2(=CC(=C(CC)C=C2)CC)","CN(C)C1C=CC(=CC=1)N=NC1=CC(CC)=C(CC)C=C1","InChI=1S/C18H23N3/c1-5-14-7-8-17(13-15(14)6-2)20-19-16-9-11-18(12-10-16)21(3)4/h7-13H,5-6H2,1-4H3","CZYRWPWBQBTNDB-UHFFFAOYSA-N","?","24","spectrophotometric","a1/apparent","?","basic",2.58
"10682","O=[N+]([O-])C1(=CC(N(C)C)=CC=C1)","CN(C)C1C=C(C=CC=1)[N+]([O-])=O","InChI=1S/C8H10N2O2/c1-9(2)7-4-3-5-8(6-7)10(11)12/h3-6H,1-2H3","CJDICMLSLYHRPT-UHFFFAOYSA-N","?","23","mean from 3","a/thermodynamic","?","basic",2.58
"10809","O=C(OCC)C1(=CC=C(N)C=C1)","CCOC(=O)C1C=CC(N)=CC=1","InChI=1S/C9H11NO2/c1-2-12-9(11)7-3-5-8(10)6-4-7/h3-6H,2,10H2,1H3","BLFLLBZGZJTVJG-UHFFFAOYSA-N","?","22","mean from 5","a1/apparent","NH2","basic",2.58
"15443","N(=NC1(=CC=C(N(C)C)C=C1))C2(=CC(=C(C)C=C2)CC)","CC1C=CC(=CC=1CC)N=NC1C=CC(=CC=1)N(C)C","InChI=1S/C17H21N3/c1-5-14-12-16(7-6-13(14)2)19-18-15-8-10-17(11-9-15)20(3)4/h6-12H,5H2,1-4H3","DZHLCAYLNZIDIH-UHFFFAOYSA-N","?","24","spectrophotometric","a1/apparent","?","basic",2.59
"17182","OC3(=CC2(=NC=1(C(=CC=CC=1)N=C2C=C3)))","OC1=CC2=NC3=CC=CC=C3N=C2C=C1","InChI=1S/C12H8N2O/c15-8-5-6-11-12(7-8)14-10-4-2-1-3-9(10)13-11/h1-7,15H","RETSEGNZNUBJRB-UHFFFAOYSA-N","?","30","potentiometric","a1/apparent","?","basic",2.6
"15442","N(=NC1(=CC=C(N(C)C)C=C1))C2(=CC(=C(CC)C=C2)C)","CC1C=C(C=CC=1CC)N=NC1C=CC(=CC=1)N(C)C","InChI=1S/C17H21N3/c1-5-14-6-7-16(12-13(14)2)19-18-15-8-10-17(11-9-15)20(3)4/h6-12H,5H2,1-4H3","BFGIQMYOHPVKJV-UHFFFAOYSA-N","?","24","spectrophotometric","a1/apparent","?","basic",2.6
"16369","O6(C5(=C4(C(C3(=C(C=1(C(=CC=2(OCOC=2(C=1)))C=C3))N(C4)C))=CC=C5OC6)))","CN1CC2C(=CC=C3OCOC=23)C2C=CC3=CC4OCOC=4C=C3C1=2","InChI=1S/C20H15NO4/c1-21-8-15-12(4-5-16-20(15)25-10-22-16)13-3-2-11-6-17-18(24-9-23-17)7-14(11)19(13)21/h2-7H,8-10H2,1H3","CIUHLXZTZWTVFL-UHFFFAOYSA-N","?","25","spectrophotometric","a1/apparent","?","basic",2.6
"14000","[O-][N+]2(=C(N)C=1(NC=NC=1N=C2))","NC1C2NC=NC=2N=C[N+]=1[O-]","InChI=1S/C5H5N5O/c6-4-3-5(8-1-7-3)9-2-10(4)11/h1-2H,6H2,(H,7,8,9)","TXTRWVWGYHUIAI-UHFFFAOYSA-N","?",,"spectrophotometric","a1/apparent","?","basic",2.6
"11543","O=[N+]([O-])C1(=CC(N)=CC=C1)","NC1C=C(C=CC=1)[N+]([O-])=O","InChI=1S/C6H6N2O2/c7-5-2-1-3-6(4-5)8(9)10/h1-4H,7H2","XJCVRTZCHMZPBD-UHFFFAOYSA-N","?","24","mean from 11","a1/thermodynamic","-NH3%+&","basic",2.6
"11956","N2(=C(C=1(NC=NC=1N=C2))C)","CC1=NC=NC2N=CNC=21","InChI=1S/C6H6N4/c1-4-5-6(9-2-7-4)10-3-8-5/h2-3H,1H3,(H,7,8,9,10)","SYMHUEFSSMBHJA-UHFFFAOYSA-N","?","20","potentiometric","a1/apparent","?","basic",2.6
"15005","O1(C(=CC=C1)CN2(N=NC=3(C2=NC=NC=3N)))","NC1N=CN=C2C=1N=NN2CC1=CC=CO1","InChI=1S/C9H8N6O/c10-8-7-9(12-5-11-8)15(14-13-7)4-6-2-1-3-16-6/h1-3,5H,4H2,(H2,10,11,12)","KJMJIWVGWUIWNO-UHFFFAOYSA-N","?","22",,"a/apparent","?","basic",2.6
"13458","[N+]=1(C=2(C(C(NN)=CC=1)=CC=CC=2))(C)","C[N+]1=CC=C(NN)C2=CC=CC=C12","InChI=1S/C10H11N3/c1-13-7-6-9(12-11)8-4-2-3-5-10(8)13/h2-7H,11H2,1H3/p+1","OVHVYXFVTXDQOD-UHFFFAOYSA-O","?","20","potentiometric","a1/apparent","?","basic",2.61
"13642","O=C(OC)C1(=CC=C(N(C)C)C=C1)","COC(=O)C1C=CC(=CC=1)N(C)C","InChI=1S/C10H13NO2/c1-11(2)9-6-4-8(5-7-9)10(12)13-3/h4-7H,1-3H3","DBQGARDMYOMOOS-UHFFFAOYSA-N","?","25","spectrophotometric","a1/thermodynamic","NH+","basic",2.61
"13419","IC2(=C(O)C1(=NC=CC=C1C(=C2)Cl))","OC1=C(I)C=C(Cl)C2=CC=CN=C21","InChI=1S/C9H5ClINO/c10-6-4-7(11)9(13)8-5(6)2-1-3-12-8/h1-4,13H","QCDFBFJGMNKBDO-UHFFFAOYSA-N","?","25","mean from 2","a1/apparent","H+ of NH+","basic",2.61
"12414","O=[N+]([O-])C=1(C=2(C(C=C(C=1)N)=CC=CC=2))","NC1=CC2=CC=CC=C2C(=C1)[N+]([O-])=O","InChI=1S/C10H8N2O2/c11-8-5-7-3-1-2-4-9(7)10(6-8)12(13)14/h1-6H,11H2","QMXYWTRTKVSGPG-UHFFFAOYSA-N","?","25","mean from 2","a/thermodynamic","?","basic",2.62
"13786","OCC1(=NC=2(N=CN=CC=2(N1)))","OCC1NC2C=NC=NC=2N=1","InChI=1S/C6H6N4O/c11-2-5-9-4-1-7-3-8-6(4)10-5/h1,3,11H,2H2,(H,7,8,9,10)","NFZTXJKXCFQRGN-UHFFFAOYSA-N","?","20","potentiometric","a1/apparent","?","basic",2.62
"13550","[N+](C1(=CC=C(N(C)C)C=C1))(C)(C)C","CN(C)C1C=CC(=CC=1)[N+](C)(C)C","InChI=1S/C11H19N2/c1-12(2)10-6-8-11(9-7-10)13(3,4)5/h6-9H,1-5H3/q+1","AOUOBLWOQDZLSF-UHFFFAOYSA-N","?","25","spectrophotometric","a/apparent","?","basic",2.64
"16347","O=[N+]([O-])C3(=CC=2(N=C(C=1(OC=CC=1))NC=2C=C3))","[O-][N+](=O)C1=CC2N=C(NC=2C=C1)C1=CC=CO1","InChI=1S/C11H7N3O3/c15-14(16)7-3-4-8-9(6-7)13-11(12-8)10-2-1-5-17-10/h1-6H,(H,12,13)","VAOCIPZCVAFPGT-UHFFFAOYSA-N","?","20","potentiometric","a1/apparent","?","basic",2.64
"10219","ClC1(=C(N)C=CC=C1)","NC1C=CC=CC=1Cl","InChI=1S/C6H6ClN/c7-5-3-1-2-4-6(5)8/h1-4H,8H2","AKCRQHGQIJBRMN-UHFFFAOYSA-N","?","23","mean from 9","a1/apparent","?","basic",2.64
"15575","[O-][N+]3(=C(NCC1(=CC=CC=C1))C=2(N=CNC=2N=C3))","[O-][N+]1C=NC2NC=NC=2C=1NCC1C=CC=CC=1","InChI=1S/C12H11N5O/c18-17-8-16-11-10(14-7-15-11)12(17)13-6-9-4-2-1-3-5-9/h1-5,7-8,13H,6H2,(H,14,15,16)","ZYWWSEMOCAYFNC-UHFFFAOYSA-N","?","30",,"b1/apparent","?","basic",2.66
"14584","O=C(NN)C1(=C(N)C=CC=C1)","NC1C=CC=CC=1C(=O)NN","InChI=1S/C7H9N3O/c8-6-4-2-1-3-5(6)7(11)10-9/h1-4H,8-9H2,(H,10,11)","GRWMSCBKWMQPON-UHFFFAOYSA-N","?, ?","25","potentiometric","a2/apparent","?, ?","basic",2.66
"16012","ClC1(=NC=2(C=C3(CCCCC3(=CC=2(N1)))))","ClC1NC2C=C3CCCCC3=CC=2N=1","InChI=1S/C11H11ClN2/c12-11-13-9-5-7-3-1-2-4-8(7)6-10(9)14-11/h5-6H,1-4H2,(H,13,14)","OVFSGBXDUGGLTQ-UHFFFAOYSA-N","?","20","spectrophotometric","a/apparent","?","basic",2.68
"15291","S(=O)(C3(=CC(OC)=C(C1(=NC=2(N=CN=CC=2(N1))))C=C3))C","CS(=O)C1=CC(OC)=C(C=C1)C1NC2C=NC=NC=2N=1","InChI=1S/C13H12N4O2S/c1-19-11-5-8(20(2)18)3-4-9(11)12-16-10-6-14-7-15-13(10)17-12/h3-7H,1-2H3,(H,14,15,16,17)","VCYCFRKSFAXXOL-UHFFFAOYSA-N","?","25","mean from 2","a1/apparent","?","basic",2.69
"15305","S1(C(=[N+](C)C2(=C1C=C(C)C=C2))C3(=CC=C(N(C)C)C=C3))","CC1C=CC2=C(C=1)SC(C1C=CC(=CC=1)N(C)C)=[N+]2C","InChI=1S/C17H19N2S/c1-12-5-10-15-16(11-12)20-17(19(15)4)13-6-8-14(9-7-13)18(2)3/h5-11H,1-4H3/q+1","FXEKRIDRIFBJOR-UHFFFAOYSA-N","?","25","potentiometric","b/apparent","?","basic",2.69
"11247","ClC1(=NC(N)=C2(C=NN(C2(=N1))C))","CN1N=CC2=C(N)N=C(Cl)N=C12","InChI=1S/C6H6ClN5/c1-12-5-3(2-9-12)4(8)10-6(7)11-5/h2H,1H3,(H2,8,10,11)","IXLBKCICUWBZOQ-UHFFFAOYSA-N","?","20","spectrophotometric","a/apparent","?","basic",2.69
"10092","N1(=C(C=C(C)N=C1)C)","CC1C=C(C)N=CN=1","InChI=1S/C6H8N2/c1-5-3-6(2)8-4-7-5/h3-4H,1-2H3","LSBIUXKNVUBKRI-UHFFFAOYSA-N","?","20","potentiometric","a1/apparent","NH(1+)","basic",2.7
"12890","N#CC1(=CN(CCC1)C)","CN1CCCC(=C1)C#N","InChI=1S/C7H10N2/c1-9-4-2-3-7(5-8)6-9/h6H,2-4H2,1H3","KAEDLWDCQPUSJH-UHFFFAOYSA-N","?",,,"a/apparent","?","basic",2.7
"12889","N#CC1(=CN(CC=C1)C)","CN1CC=CC(=C1)C#N","InChI=1S/C7H8N2/c1-9-4-2-3-7(5-8)6-9/h2-3,6H,4H2,1H3","ZMTFFNRUQXTNPJ-UHFFFAOYSA-N","?",,,"a/apparent","?","basic",2.7
"13421","IC2(=C(O)C1(=NC=CC=C1C(=C2)I))","OC1C2=NC=CC=C2C(I)=CC=1I","InChI=1S/C9H5I2NO/c10-6-4-7(11)9(13)8-5(6)2-1-3-12-8/h1-4,13H","UXZFQZANDVDGMM-UHFFFAOYSA-N","?","25","spectrophotometric","a1/apparent","?","basic",2.7
"13853","OC=2(C1(=NN=CC=C1C=CC=2))","OC1=CC=CC2=CC=NN=C21","InChI=1S/C8H6N2O/c11-7-3-1-2-6-4-5-9-10-8(6)7/h1-5,11H","UCYUOFIVFHOUTP-UHFFFAOYSA-N","?","20","mean from 4","a1/apparent","?","basic",2.72
"15257","N(C2(=CC=1(C(=CC=CC=1)C=C2)))CCNC4(=CC=3(C(=CC=CC=3)C=C4))","C(CNC1=CC2=CC=CC=C2C=C1)NC1=CC2=CC=CC=C2C=C1","InChI=1S/C22H20N2/c1-3-7-19-15-21(11-9-17(19)5-1)23-13-14-24-22-12-10-18-6-2-4-8-20(18)16-22/h1-12,15-16,23-24H,13-14H2","UQNYJPVIIOGVSR-UHFFFAOYSA-N","?, ?",,"potentiometric","a2/apparent","?, ?","basic",2.75
"17866","ClC1(=CN=CC=C1)","ClC1=CN=CC=C1","InChI=1S/C5H4ClN/c6-5-2-1-3-7-4-5/h1-4H","PWRBCZZQRRPXAB-UHFFFAOYSA-N","?","24","mean from 5","a1/apparent","NH(1+)","basic",2.77
"11966","S2(C1(=NC=NC(=C1N=C2)N))","NC1N=CN=C2SC=NC2=1","InChI=1S/C5H4N4S/c6-4-3-5(8-1-7-4)10-2-9-3/h1-2H,(H2,6,7,8)","XLQTXFKCBDQZSN-UHFFFAOYSA-N","?",,"potentiometric","a/apparent","?","basic",2.77
"13571","S1(C(=NC=C1C(=O)OCC)N(C)C)","CCOC(=O)C1=CN=C(S1)N(C)C","InChI=1S/C8H12N2O2S/c1-4-12-7(11)6-5-9-8(13-6)10(2)3/h5H,4H2,1-3H3","FSYRFLKQQXNKDX-UHFFFAOYSA-N","?","25","potentiometric","a1/thermodynamic","?","basic",2.77
"15345","O(C1(=C(O)C=CC(=C1)C=NC3(=NC=2(NC=NC=2C=N3))))C","COC1C=C(C=NC2=NC3NC=NC=3C=N2)C=CC=1O","InChI=1S/C13H11N5O2/c1-20-11-4-8(2-3-10(11)19)5-14-13-15-6-9-12(18-13)17-7-16-9/h2-7,19H,1H3,(H,15,16,17,18)","ZSVJBTMNAPRTIZ-UHFFFAOYSA-N","?","25","spectrophotometric","a1/apparent","NH","basic",2.79
"12416","O=[N+]([O-])C=2(C=1(C(=C(N)C=CC=1)C=CC=2))","NC1C=CC=C2C(=CC=CC2=1)[N+]([O-])=O","InChI=1S/C10H8N2O2/c11-9-5-1-4-8-7(9)3-2-6-10(8)12(13)14/h1-6H,11H2","WEWILNPCZSSAIJ-UHFFFAOYSA-N","?","25",,"a/thermodynamic","?","basic",2.8
"11572","OC1(=NNC(=C1CC=C)C)","CC1NN=C(O)C=1CC=C","InChI=1S/C7H10N2O/c1-3-4-6-5(2)8-9-7(6)10/h3H,1,4H2,2H3,(H2,8,9,10)","TUMKJTLZZCILGU-UHFFFAOYSA-N","?",,"potentiometric","a/apparent","?","basic",2.8
"13816","N#CC2(=CC1(=C(NCC1)C=C2))","N#CC1=CC2CCNC=2C=C1","InChI=1S/C9H8N2/c10-6-7-1-2-9-8(5-7)3-4-11-9/h1-2,5,11H,3-4H2","KBNWGVBBEPQFIZ-UHFFFAOYSA-N","?","20","spectrophotometric","a1/apparent","N-H","basic",2.8
"13463","S1(C(=NN=C1C2(=CC=CC=C2))NC)","CNC1=NN=C(S1)C1C=CC=CC=1","InChI=1S/C9H9N3S/c1-10-9-12-11-8(13-9)7-5-3-2-4-6-7/h2-6H,1H3,(H,10,12)","KYFFHIGZVFHJIV-UHFFFAOYSA-N","?",,"spectrophotometric","b/apparent","?","basic",2.8
"14580","O=C(NN)C1(=CC=C(N)C=C1)","NC1C=CC(=CC=1)C(=O)NN","InChI=1S/C7H9N3O/c8-6-3-1-5(2-4-6)7(11)10-9/h1-4H,8-9H2,(H,10,11)","WPBZMCGPFHZRHJ-UHFFFAOYSA-N","?, ?","25","potentiometric","a2/apparent","?, ?","basic",2.8049999999999997
"17248","O=CNN","NNC=O","InChI=1S/CH4N2O/c2-3-1-4/h1H,2H2,(H,3,4)","XZBIXDPGRMLSTC-UHFFFAOYSA-N","?","25","potentiometric","a1/apparent","?","basic",2.81
"17125","N(=NC1(=CC=CC=C1))C2(=CC=C(N)C=C2)","NC1C=CC(=CC=1)N=NC1C=CC=CC=1","InChI=1S/C12H11N3/c13-10-6-8-12(9-7-10)15-14-11-4-2-1-3-5-11/h1-9H,13H2","QPQKUYVSJWQSDY-UHFFFAOYSA-N","?","25","spectrophotometric","a/apparent","?","basic",2.82
"12417","O=[N+]([O-])C2(=CC1(=C(N)C=CC=C1C=C2))","NC1C=CC=C2C=CC(=CC2=1)[N+]([O-])=O","InChI=1S/C10H8N2O2/c11-10-3-1-2-7-4-5-8(12(13)14)6-9(7)10/h1-6H,11H2","LCFRYFXEODXQHS-UHFFFAOYSA-N","?","20",,"a/thermodynamic","?","basic",2.83
"12898","N#CC1(=CC(N)=CC=C1)","NC1C=C(C=CC=1)C#N","InChI=1S/C7H6N2/c8-5-6-2-1-3-7(9)4-6/h1-4H,9H2","NJXPYZHXZZCTNI-UHFFFAOYSA-N","?","25","mean from 2","a1/apparent","-NH3(1+)","basic",2.83
"12717","N2(=C1(NN=CC1=CN=C2))","C1N=C2NN=CC2=CN=1","InChI=1S/C5H4N4/c1-4-2-8-9-5(4)7-3-6-1/h1-3H,(H,6,7,8,9)","QUKPALAWEPMWOS-UHFFFAOYSA-N","?","20","spectrophotometric","a1/apparent","?","basic",2.84