"Molecule name","OriginalSmiles","Canonical_QSARr","InChI_Code_QSARr","InChI Key_QSARr","Salt_Solvent (Concatenate)","temp","method","type","group","basicOrAcidic","pKa"
"14834","O=[N+]([O-])C1(=CC(OC)=C(OC)C(=C1)C(=O)NC3(CC4(N(CC2(=CC=CC=C2))C(C3)CC4)))","COC1C=C(C=C(C=1OC)C(=O)NC1CC2CCC(C1)N2CC1C=CC=CC=1)[N+]([O-])=O","InChI=1S/C23H27N3O5/c1-30-21-13-19(26(28)29)12-20(22(21)31-2)23(27)24-16-10-17-8-9-18(11-16)25(17)14-15-6-4-3-5-7-15/h3-7,12-13,16-18H,8-11,14H2,1-2H3,(H,24,27)","VHMRPJSIKPIXAE-UHFFFAOYSA-N","?","25","potentiometric","a1/thermodynamic","?","basic",8.7
"14786","O=C(NC2(CC3(N(CC1(=CC=CC=C1))C(C2)CC3)))C4(=C(OC)C(OC)=CC(=C4)C#N)","COC1=CC(=CC(C(=O)NC2CC3CCC(C2)N3CC2C=CC=CC=2)=C1OC)C#N","InChI=1S/C24H27N3O3/c1-29-22-11-17(14-25)10-21(23(22)30-2)24(28)26-18-12-19-8-9-20(13-18)27(19)15-16-6-4-3-5-7-16/h3-7,10-11,18-20H,8-9,12-13,15H2,1-2H3,(H,26,28)","HUNDOEYDIVPBJP-UHFFFAOYSA-N","?","25","potentiometric","a1/thermodynamic","?","basic",8.7
"17373","N(CCNC)C","CNCCNC","InChI=1S/C4H12N2/c1-5-3-4-6-2/h5-6H,3-4H2,1-2H3","KVKFRMCSXWQSNT-UHFFFAOYSA-N","?, ?","25","mean from 3","a2/apparent","?, ?","basic",8.7
"11602","[S-]C1(=[N+](C=CC(=N1)[O-])CC)","CC[N+]1=CC=C(O)N=C1S","InChI=1S/C6H8N2OS/c1-2-8-4-3-5(9)7-6(8)10/h3-4H,2H2,1H3,(H,7,9,10)/p+1","OCTAJTSAKZYCIT-UHFFFAOYSA-O","?",,"spectrophotometric","a/apparent","?","basic",8.7
"11682","O=C(OC)C1(=CCCNC1)","COC(=O)C1CNCCC=1","InChI=1S/C7H11NO2/c1-10-7(9)6-3-2-4-8-5-6/h3,8H,2,4-5H2,1H3","DYPLDWLIOGXSSE-UHFFFAOYSA-N","?","25",,"a1/apparent","?","basic",8.7
"11893","OC(CN(CCO)C)CC","CCC(O)CN(C)CCO","InChI=1S/C7H17NO2/c1-3-7(10)6-8(2)4-5-9/h7,9-10H,3-6H2,1-2H3","UTQDHZMLKBOPTL-UHFFFAOYSA-N","?","20","potentiometric","a1/apparent","-NH3%+&","basic",8.7
"14464","O(C1(=C(O)C(=CC=C1)CN))C","COC1C=CC=C(CN)C=1O","InChI=1S/C8H11NO2/c1-11-7-4-2-3-6(5-9)8(7)10/h2-4,10H,5,9H2,1H3","CLJHZQFAKIIMBA-UHFFFAOYSA-N","?","25","potentiometric","a1/thermodynamic","?","basic",8.7
"10929","O=C(N(N)C1(CCN(C)CC1))C","CN1CCC(CC1)N(N)C(=C)O","InChI=1S/C8H17N3O/c1-7(12)11(9)8-3-5-10(2)6-4-8/h8,12H,1,3-6,9H2,2H3","NESMVTRWXGVRJS-UHFFFAOYSA-N","?","20","potentiometric","a/apparent","?","basic",8.7
"10928","O=C(NNC1(CCN(C)CC1))C","C/C(/O)=N\NC1CCN(C)CC1","InChI=1S/C8H17N3O/c1-7(12)9-10-8-3-5-11(2)6-4-8/h8,10H,3-6H2,1-2H3,(H,9,12)","JDZQCVNSMIOFBW-UHFFFAOYSA-N","?","20","potentiometric","a/apparent","?","basic",8.7
"11879","N(C(C#C)(C)C)(C(C)C)C","CC(C)N(C)C(C)(C)C#C","InChI=1S/C9H17N/c1-7-9(4,5)10(6)8(2)3/h1,8H,2-6H3","PBPKMJQGQQMCMA-UHFFFAOYSA-N","?","25","potentiometric","a1/apparent","?","basic",8.7
"14410","N(CC1(=C(C=CC=C1)C))(C)C","CC1C=CC=CC=1CN(C)C","InChI=1S/C10H15N/c1-9-6-4-5-7-10(9)8-11(2)3/h4-7H,8H2,1-3H3","IDKBVYHLNSAKTG-UHFFFAOYSA-N","?","25","potentiometric","a1/thermodynamic","N-H%+&","basic",8.71
"15901","O2(C1(=C(OC)C=CC5(=C1C34(C2C(O)CCC3C(N(C)CC4)C5))))","COC1C=CC2CC3C4CCC(O)C5OC=1C=2C45CCN3C","InChI=1S/C18H23NO3/c1-19-8-7-18-11-4-5-13(20)17(18)22-16-14(21-2)6-3-10(15(16)18)9-12(11)19/h3,6,11-13,17,20H,4-5,7-9H2,1-2H3","RBOXVHNMENFORY-UHFFFAOYSA-N","?","20","mean from 2","b1/apparent","?","basic",8.71
"16371","O=C4(N(C2(CC3(N(CC1(=CC=CC=C1))C(C2)CC3)))CC5(=C4C=CC=C5))","O=C1C2C=CC=CC=2CN1C1CC2CCC(C1)N2CC1C=CC=CC=1","InChI=1S/C22H24N2O/c25-22-21-9-5-4-8-17(21)15-24(22)20-12-18-10-11-19(13-20)23(18)14-16-6-2-1-3-7-16/h1-9,18-20H,10-15H2","VWIFRZCPOMTJPC-UHFFFAOYSA-N","?","25","potentiometric","a1/apparent","?","basic",8.71
"17318","O1(CCNCC1)","C1COCCN1","InChI=1S/C4H9NO/c1-3-6-4-2-5-1/h5H,1-4H2","YNAVUWVOSKDBBP-UHFFFAOYSA-N","?","24","mean from 19","a1/apparent","NH2%+&","basic",8.71
"17426","N(CC=C)(C)C","CN(C)CC=C","InChI=1S/C5H11N/c1-4-5-6(2)3/h4H,1,5H2,2-3H3","GBCKRQRXNXQQPW-UHFFFAOYSA-N","?","25","potentiometric","a/apparent","?","basic",8.72
"13589","O=[N+]([O-])C1(=C(C=C(OC)C=C1)CN)","COC1=CC(CN)=C(C=C1)[N+]([O-])=O","InChI=1S/C8H10N2O3/c1-13-7-2-3-8(10(11)12)6(4-7)5-9/h2-4H,5,9H2,1H3","DZJKVKCPWQBJSU-UHFFFAOYSA-N","?","25","potentiometric","a1/apparent","?","basic",8.72
"11504","N#CC1(=CC=C(CN)C=C1)","NCC1=CC=C(C=C1)C#N","InChI=1S/C8H8N2/c9-5-7-1-2-8(6-10)4-3-7/h1-4H,5,9H2","LFIWXXXFJFOECP-UHFFFAOYSA-N","?","25","potentiometric","a1/apparent","?","basic",8.72
"16798","[Br]C4(=C(OC)C(C(=O)NC2(CC3(N(CC1(=CC=CC=C1))C(C2)CC3)))=CC=C4)","COC1=C(Br)C=CC=C1C(=O)NC1CC2CCC(C1)N2CC1C=CC=CC=1","InChI=1S/C22H25BrN2O2/c1-27-21-19(8-5-9-20(21)23)22(26)24-16-12-17-10-11-18(13-16)25(17)14-15-6-3-2-4-7-15/h2-9,16-18H,10-14H2,1H3,(H,24,26)","GXKPXGJMSIXZPW-UHFFFAOYSA-N","?","25","potentiometric","a1/thermodynamic","?","basic",8.73
"12441","OC(CN1(CCCC1))CN2(CCCC2)","OC(CN1CCCC1)CN1CCCC1","InChI=1S/C11H22N2O/c14-11(9-12-5-1-2-6-12)10-13-7-3-4-8-13/h11,14H,1-10H2","IMHRMXJMEAPBMG-UHFFFAOYSA-N","?, ?","25","potentiometric","a2/thermodynamic","NH+, NH+","basic",8.74
"16234","O=C(N(C1(=C(C=CC=C1)C))C)CN(CC)CC","CN(C(O)=CN(CC)CC)C1C=CC=CC=1C","InChI=1S/C14H22N2O/c1-5-16(6-2)11-14(17)15(4)13-10-8-7-9-12(13)3/h7-11,17H,5-6H2,1-4H3","XXTUOZDKVPAWLY-UHFFFAOYSA-N","?",,,"a/thermodynamic","?","basic",8.74
"15497","O=C(NC2(CC3(N(CC1(=CC=CC=C1))C(C2)CC3)))C4(=C(OC)C=CC(=C4)C=O)","COC1C=CC(=CC=1C(=O)NC1CC2CCC(C1)N2CC1C=CC=CC=1)C=O","InChI=1S/C23H26N2O3/c1-28-22-10-7-17(15-26)11-21(22)23(27)24-18-12-19-8-9-20(13-18)25(19)14-16-5-3-2-4-6-16/h2-7,10-11,15,18-20H,8-9,12-14H2,1H3,(H,24,27)","FYCADUFLMZLQBG-UHFFFAOYSA-N","?","25","potentiometric","a1/thermodynamic","?","basic",8.74
"12600","N(CC(CN)(C)C)(C)C","CN(C)CC(C)(C)CN","InChI=1S/C7H18N2/c1-7(2,5-8)6-9(3)4/h5-6,8H2,1-4H3","ULDIVZQLPBUHAG-UHFFFAOYSA-N","?, ?","24","mean from 2","a1/apparent","?, ?","basic",8.745000000000001
"15433","O(C(C1(=CC=CC=C1))(C2(=CC=CC=C2))C)CCN(C)C","CN(C)CCOC(C)(C1C=CC=CC=1)C1C=CC=CC=1","InChI=1S/C18H23NO/c1-18(20-15-14-19(2)3,16-10-6-4-7-11-16)17-12-8-5-9-13-17/h4-13H,14-15H2,1-3H3","BBIMHFSPNXQFAH-UHFFFAOYSA-N","?",,"potentiometric","b/apparent","?","basic",8.75
"12603","N(CCCN(C)C)(C)C","CN(C)CCCN(C)C","InChI=1S/C7H18N2/c1-8(2)6-5-7-9(3)4/h5-7H2,1-4H3","DMQSHEKGGUOYJS-UHFFFAOYSA-N","?, ?","22","mean from 2","a1/apparent","?, ?","basic",8.765
"14603","O=C(OCCN(C(C)C)C(C)C)C(=C)C","CC(=C)C(=O)OCCN(C(C)C)C(C)C","InChI=1S/C12H23NO2/c1-9(2)12(14)15-8-7-13(10(3)4)11(5)6/h10-11H,1,7-8H2,2-6H3","SVYHMICYJHWXIN-UHFFFAOYSA-N","?","25","mean from 3","a1/thermodynamic","?","basic",8.77
"15883","ClC3(=CC=C(CC(C1(=CC=CC=C1))=CCN2(CCCC2))C=C3)","ClC1=CC=C(CC(=CCN2CCCC2)C2C=CC=CC=2)C=C1","InChI=1S/C20H22ClN/c21-20-10-8-17(9-11-20)16-19(18-6-2-1-3-7-18)12-15-22-13-4-5-14-22/h1-3,6-12H,4-5,13-16H2","WDYYVNNRTDZKAZ-UHFFFAOYSA-N","?","25","potentiometric","a/apparent","Verb.+","basic",8.77
"13590","O=[N+]([O-])C1(=C(C=CC(=C1)OC)CN)","COC1=CC(=C(CN)C=C1)[N+]([O-])=O","InChI=1S/C8H10N2O3/c1-13-7-3-2-6(5-9)8(4-7)10(11)12/h2-4H,5,9H2,1H3","BIELODAMHRLSCS-UHFFFAOYSA-N","?","25","potentiometric","a1/apparent","?","basic",8.77
"10799","OC1(=CC(=CC=C1)C(O)CNC)","CNCC(O)C1C=C(O)C=CC=1","InChI=1S/C9H13NO2/c1-10-6-9(12)7-3-2-4-8(11)5-7/h2-5,9-12H,6H2,1H3","SONNWYBIRXJNDC-UHFFFAOYSA-N","?",,"spectrophotometric","a1/apparent","?","basic",8.77
"10844","OCC1(=C(C=CC=C1)CN(C)C)","CN(C)CC1C=CC=CC=1CO","InChI=1S/C10H15NO/c1-11(2)7-9-5-3-4-6-10(9)8-12/h3-6,12H,7-8H2,1-2H3","KCSZGCNCOFOSQD-UHFFFAOYSA-N","?","25","potentiometric","a1/thermodynamic","N-H%+&","basic",8.78
"14807","O=C(NC2(CC3(N(CC1(=CC=CC=C1))C(C2)CC3)))C4(=C(OC)C(OCC)=CC=C4)","COC1C(=CC=CC=1C(=O)NC1CC2CCC(C1)N2CC1C=CC=CC=1)OCC","InChI=1S/C24H30N2O3/c1-3-29-22-11-7-10-21(23(22)28-2)24(27)25-18-14-19-12-13-20(15-18)26(19)16-17-8-5-4-6-9-17/h4-11,18-20H,3,12-16H2,1-2H3,(H,25,27)","LUDHRKIDSIBSKH-UHFFFAOYSA-N","?","25","potentiometric","a1/thermodynamic","?","basic",8.78
"14085","O=C(N(CC)CC)CNCC","CCN=CC(O)N(CC)CC","InChI=1S/C8H18N2O/c1-4-9-7-8(11)10(5-2)6-3/h7-8,11H,4-6H2,1-3H3","LCJJJDILLGBESB-UHFFFAOYSA-N","?","26","potentiometric","b/apparent","?","basic",8.78
"16830","O(C2(=CC=C(C(O)CNC(CC1(=C(C(C)(C)CC1)C))C)C=C2))C","CC1=C(CC(C)NCC(O)C2C=CC(=CC=2)OC)CCC1(C)C","InChI=1S/C20H31NO2/c1-14(12-17-10-11-20(3,4)15(17)2)21-13-19(22)16-6-8-18(23-5)9-7-16/h6-9,14,19,21-22H,10-13H2,1-5H3","WYIFHVMRNHJPBO-UHFFFAOYSA-N","?",,"potentiometric","a1/apparent","NH2(+)","basic",8.79
"16797","IC1(=CC(=C(OC)C=C1)C(=O)NC3(CC4(N(CC2(=CC=CC=C2))C(C3)CC4)))","COC1C=CC(I)=CC=1C(=O)NC1CC2CCC(C1)N2CC1C=CC=CC=1","InChI=1S/C22H25IN2O2/c1-27-21-10-7-16(23)11-20(21)22(26)24-17-12-18-8-9-19(13-17)25(18)14-15-5-3-2-4-6-15/h2-7,10-11,17-19H,8-9,12-14H2,1H3,(H,24,26)","YUIJDQIPLUXKDN-UHFFFAOYSA-N","?","25","potentiometric","a1/thermodynamic","?","basic",8.79
"12740","ClC1(C2(CCN(C1)CC2))","ClC1CN2CCC1CC2","InChI=1S/C7H12ClN/c8-7-5-9-3-1-6(7)2-4-9/h6-7H,1-5H2","NOLVABYTFMDREN-UHFFFAOYSA-N","?","27","mean from 3","a1/thermodynamic","NH(+)","basic",8.79
"11091","O2(CCN(C1(=CC=NC=C1))CC2)","C1CN(CCO1)C1C=CN=CC=1","InChI=1S/C9H12N2O/c1-3-10-4-2-9(1)11-5-7-12-8-6-11/h1-4H,5-8H2","QJWQYVJVCXMTJP-UHFFFAOYSA-N","?","25","mean from 3","b1/apparent","?","basic",8.79
"12353","N2(=C(C1(=NC=CC(=C1)N))C=C(N)C=C2)","NC1=CC(=NC=C1)C1C=C(N)C=CN=1","InChI=1S/C10H10N4/c11-7-1-3-13-9(5-7)10-6-8(12)2-4-14-10/h1-6H,(H2,11,13)(H2,12,14)","WTHJTVKLMSJXEV-UHFFFAOYSA-N","?","20","spectrophotometric","a1/apparent","=NH(+)-","basic",8.8
"13215","OC(CN(CC(O)C)CC(C)C)C","CC(C)CN(CC(C)O)CC(C)O","InChI=1S/C10H23NO2/c1-8(2)5-11(6-9(3)12)7-10(4)13/h8-10,12-13H,5-7H2,1-4H3","SJVINIYQXBASPF-UHFFFAOYSA-N","?",,"potentiometric","a/apparent","prot.","basic",8.8
"11135","N2(C(C1(=CC=CC=C1))CCC2)(C)","CN1CCCC1C1C=CC=CC=1","InChI=1S/C11H15N/c1-12-9-5-8-11(12)10-6-3-2-4-7-10/h2-4,6-7,11H,5,8-9H2,1H3","RUJFIXHHAWJMRM-UHFFFAOYSA-N","?",,"potentiometric","b/apparent","?","basic",8.8
"11320","N(C(C#C)(CC)CC)(C(C)C)C","CC(C)N(C)C(CC)(CC)C#C","InChI=1S/C11H21N/c1-7-11(8-2,9-3)12(6)10(4)5/h1,10H,8-9H2,2-6H3","KGICQTUFNNYQCF-UHFFFAOYSA-N","?","25","potentiometric","a1/apparent","?","basic",8.8
"15064","N1(CCCCC1)(CC=CCN2(CCCCC2))","C(C=CCN1CCCCC1)N1CCCCC1","InChI=1S/C14H26N2/c1-3-9-15(10-4-1)13-7-8-14-16-11-5-2-6-12-16/h7-8H,1-6,9-14H2","GGMZNKPVYRGGPT-UHFFFAOYSA-N","?, ?",,"potentiometric","a2/apparent","NH+, NH+","basic",8.8
"15881","N3(C(CC(C1(=CC=CC=C1))C2(=CC=CC=C2))C)(CCCCC3)","CC(CC(C1=CC=CC=C1)C1=CC=CC=C1)N1CCCCC1","InChI=1S/C21H27N/c1-18(22-15-9-4-10-16-22)17-21(19-11-5-2-6-12-19)20-13-7-3-8-14-20/h2-3,5-8,11-14,18,21H,4,9-10,15-17H2,1H3","AEVKYUNBJONFHN-UHFFFAOYSA-N","?","25","potentiometric","a/apparent","NH+","basic",8.8
"17716","OCC(N)(CO)C","CC(N)(CO)CO","InChI=1S/C4H11NO2/c1-4(5,2-6)3-7/h6-7H,2-3,5H2,1H3","UXFQFBNBSPQBJW-UHFFFAOYSA-N","?","24","mean from 5","a1/thermodynamic","?","basic",8.8
"13797","[O-]C1(=NC=NC2(=C1N(C=N2)C))","CN1C=NC2N=CN=C(O)C1=2","InChI=1S/C6H6N4O/c1-10-3-9-5-4(10)6(11)8-2-7-5/h2-3H,1H3,(H,7,8,11)","CBQMKYHLDADRLN-UHFFFAOYSA-N","?","25","potentiometric","a/apparent","?","basic",8.8
"11580","O=C(NC)C1(NCCCC1)","CNC(O)C1CCCCN=1","InChI=1S/C7H14N2O/c1-8-7(10)6-4-2-3-5-9-6/h7-8,10H,2-5H2,1H3","DQDPGYJZCLGKBT-UHFFFAOYSA-N","?","25","potentiometric","a/apparent","?","basic",8.8
"12036","N1(C2(=CCCC1CCC2))(C)","CN1C2CCCC1=CCC2","InChI=1S/C9H15N/c1-10-8-4-2-5-9(10)7-3-6-8/h4,9H,2-3,5-7H2,1H3","RCYNXRRRWSOOOC-UHFFFAOYSA-N","?","25","spectrophotometric","a1/thermodynamic","?","basic",8.8
"13400","OC1(=C(C=CC=C1)CN2(CCCC2))","OC1C=CC=CC=1CN1CCCC1","InChI=1S/C11H15NO/c13-11-6-2-1-5-10(11)9-12-7-3-4-8-12/h1-2,5-6,13H,3-4,7-9H2","XXWYYQVGCPWDHR-UHFFFAOYSA-N","?","25","mean from 5","a1/apparent","?","basic",8.81
"13669","OC1(=C(C=CC=C1)CN(CC)CC)","CCN(CC1C=CC=CC=1O)CC","InChI=1S/C11H17NO/c1-3-12(4-2)9-10-7-5-6-8-11(10)13/h5-8,13H,3-4,9H2,1-2H3","IGXXOUGMPVOZFH-UHFFFAOYSA-N","?","25","mean from 4","a1/apparent","?","basic",8.81
"10445","OC(CNCCO)C","CC(O)CNCCO","InChI=1S/C5H13NO2/c1-5(8)4-6-2-3-7/h5-8H,2-4H2,1H3","GBAXGHVGQJHFQL-UHFFFAOYSA-N","?","25","potentiometric","a/thermodynamic","prot.","basic",8.81
"16898","O2(C1(=C(C=CC=C1)CNCCCNCC3(=C(OCC2)C=CC=C3)))","C1NCCCNCC2C=CC=CC=2OCCOC2C=CC=CC=21","InChI=1S/C19H24N2O2/c1-3-8-18-16(6-1)14-20-10-5-11-21-15-17-7-2-4-9-19(17)23-13-12-22-18/h1-4,6-9,20-21H,5,10-15H2","CHCYHXIUMOKQRL-UHFFFAOYSA-N","?, ?","25","mean from 2","b1/apparent","HN%+&-H, HN%+&-H","basic",8.82
"16796","FC1(=CC(=C(OC)C=C1)C(=O)NC3(CC4(N(CC2(=CC=CC=C2))C(C3)CC4)))","COC1C=CC(F)=CC=1C(=O)NC1CC2CCC(C1)N2CC1C=CC=CC=1","InChI=1S/C22H25FN2O2/c1-27-21-10-7-16(23)11-20(21)22(26)24-17-12-18-8-9-19(13-17)25(18)14-15-5-3-2-4-6-15/h2-7,10-11,17-19H,8-9,12-14H2,1H3,(H,24,26)","RDSUDBIYCMDIGP-UHFFFAOYSA-N","?","25","potentiometric","a1/thermodynamic","?","basic",8.82
"16760","O=C1(N(C(N)=NC1CC(=O)[O-])CCCC(N)C(=O)[O-])","NC1=NC(CC(O)=O)=C(O)N1CCCC(=N)C(O)O","InChI=1S/C10H16N4O5/c11-5(9(18)19)2-1-3-14-8(17)6(4-7(15)16)13-10(14)12/h9,11,17-19H,1-4H2,(H2,12,13)(H,15,16)","ZJAKRXPUSBULEY-UHFFFAOYSA-N","?, ?",,"potentiometric","a4/apparent","?, ?","basic",8.825
"11326","S(CC(C)C)CCN(CC)CC","CC(C)CSCCN(CC)CC","InChI=1S/C10H23NS/c1-5-11(6-2)7-8-12-9-10(3)4/h10H,5-9H2,1-4H3","ZBDCZOMEKJDMLI-UHFFFAOYSA-N","?","17","potentiometric","b/apparent","?","basic",8.83
"16171","ClC1(=C(Cl)C=C(Cl)C(=C1CN2(CCOCC2))[O-])","OC1=C(CN2CCOCC2)C(Cl)=C(Cl)C=C1Cl","InChI=1S/C11H12Cl3NO2/c12-8-5-9(13)11(16)7(10(8)14)6-15-1-3-17-4-2-15/h5,16H,1-4,6H2","VEFSPVXJOXOAAZ-UHFFFAOYSA-N","?","25","spectrophotometric","a2/apparent","R2NH","basic",8.83
"16507","O2(C1(=C(OC)C=CC5(=C1C34(C2CCCC3C(N(C)CC4)C5))))","COC1C=CC2CC3C4CCCC5OC=1C=2C45CCN3C","InChI=1S/C18H23NO2/c1-19-9-8-18-12-4-3-5-15(18)21-17-14(20-2)7-6-11(16(17)18)10-13(12)19/h6-7,12-13,15H,3-5,8-10H2,1-2H3","ZJWPQUSUXBOTPF-UHFFFAOYSA-N","?",,"potentiometric","a/apparent","?","basic",8.83
"13927","[S-]C=1(C=2(C(N=CC=1)=CC=CC=2))","SC1=CC=NC2=CC=CC=C21","InChI=1S/C9H7NS/c11-9-5-6-10-8-4-2-1-3-7(8)9/h1-6H,(H,10,11)","ROYCCMJSURLMLI-UHFFFAOYSA-N","?","20","spectrophotometric","a2/apparent","?","basic",8.83
"15651","O2(C1(=C(C=CC=C1)C=C2C3(O)(C4(CCN(C3)CC4))))","OC1(CN2CCC1CC2)C1=CC2C=CC=CC=2O1","InChI=1S/C15H17NO2/c17-15(10-16-7-5-12(15)6-8-16)14-9-11-3-1-2-4-13(11)18-14/h1-4,9,12,17H,5-8,10H2","POFHOXXJFNDMNR-UHFFFAOYSA-N","?","25","potentiometric","a1/apparent","?","basic",8.84
"16495","OC(C1(=CC=CC=C1))CNC(CC2(=C(C(C)(C)CC2)C))C","CC1=C(CC(C)NCC(O)C2C=CC=CC=2)CCC1(C)C","InChI=1S/C19H29NO/c1-14(12-17-10-11-19(3,4)15(17)2)20-13-18(21)16-8-6-5-7-9-16/h5-9,14,18,20-21H,10-13H2,1-4H3","BIMATRLPOYCDNI-UHFFFAOYSA-N","?",,"potentiometric","a1/apparent","NH2(+)","basic",8.84
"14780","O=C(NC2(CC3(N(CC1(=CC=CC=C1))C(C2)CC3)))C4(=C(OC)C(OC)=CC(=C4)OC)","COC1C(=CC(=CC=1C(=O)NC1CC2CCC(C1)N2CC1C=CC=CC=1)OC)OC","InChI=1S/C24H30N2O4/c1-28-20-13-21(23(30-3)22(14-20)29-2)24(27)25-17-11-18-9-10-19(12-17)26(18)15-16-7-5-4-6-8-16/h4-8,13-14,17-19H,9-12,15H2,1-3H3,(H,25,27)","IOBIZIYHGMFRMA-UHFFFAOYSA-N","?","25","potentiometric","a1/thermodynamic","?","basic",8.84
"10801","OC1(=C(O)C=CC(=C1)CCNC)","CNCCC1=CC(O)=C(O)C=C1","InChI=1S/C9H13NO2/c1-10-5-4-7-2-3-8(11)9(12)6-7/h2-3,6,10-12H,4-5H2,1H3","NGKZFDYBISXGGS-UHFFFAOYSA-N","?","20","mean from 3","a1/apparent","?","basic",8.84
"13578","O(C1(=C(C=C(C)C=C1CN)CN))C","CC1C=C(CN)C(OC)=C(CN)C=1","InChI=1S/C10H16N2O/c1-7-3-8(5-11)10(13-2)9(4-7)6-12/h3-4H,5-6,11-12H2,1-2H3","WLTUDVRDIXDCEW-UHFFFAOYSA-N","?","23","mean from 2","a1/apparent","NH2(+)-H","basic",8.85
"16185","N=1(C=2(C(C(NCCCN(C)C)=CC=1)=CC=CC=2))","CN(C)CCCNC1=CC=NC2=CC=CC=C21","InChI=1S/C14H19N3/c1-17(2)11-5-9-15-14-8-10-16-13-7-4-3-6-12(13)14/h3-4,6-8,10H,5,9,11H2,1-2H3,(H,15,16)","VFIWSWWCVYACIN-UHFFFAOYSA-N","?","25","spectrophotometric","a1/apparent","?","basic",8.85
"14777","O=C(OC6(C5(OC17(C(C2(O)(CC(O)C3(C(C2(C1)(O))CN4(CC(C)CCC4(C3(O)C)))(O)))CCC5C7(C)(CC6)))(O)))C(=CC)C","CC(=CC)C(=O)OC1CCC2(C)C3CCC4C2(CC2(O)C5CN6CC(C)CCC6C(C)(O)C5(O)C(O)CC24O)OC13O","InChI=1S/C32H49NO9/c1-6-18(3)25(35)41-24-11-12-26(4)19-8-9-20-28(37)13-23(34)31(39)21(29(28,38)16-30(20,26)42-32(19,24)40)15-33-14-17(2)7-10-22(33)27(31,5)36/h6,17,19-24,34,36-40H,7-16H2,1-5H3","DBUCFOVFALNEOO-UHFFFAOYSA-N","?","15","spectrophotometric","b/apparent","?","basic",8.85
"11673","S(C1(C(N(C)C)CCC1))C","CSC1CCCC1N(C)C","InChI=1S/C8H17NS/c1-9(2)7-5-4-6-8(7)10-3/h7-8H,4-6H2,1-3H3","JXJSCBGPCIXAFD-UHFFFAOYSA-N","?","25","mean from 2","a1/apparent","NH","basic",8.85
"16802","O=C(NC2(CC3(N(CC1(=CC=CC=C1))C(C2)CC3)))C4(=C(OC)C(N)=CC=C4)","COC1C(N)=CC=CC=1C(=O)NC1CC2CCC(C1)N2CC1C=CC=CC=1","InChI=1S/C22H27N3O2/c1-27-21-19(8-5-9-20(21)23)22(26)24-16-12-17-10-11-18(13-16)25(17)14-15-6-3-2-4-7-15/h2-9,16-18H,10-14,23H2,1H3,(H,24,26)","COVMBJFANGGPMW-UHFFFAOYSA-N","?","25","potentiometric","a1/thermodynamic","?","basic",8.86
"16408","O=C(C(C1(=CC=CC=C1))(C2(=CC=CC=C2))CCN3(CCCCC3))CC","CC=C(O)C(CCN1CCCCC1)(C1C=CC=CC=1)C1C=CC=CC=1","InChI=1S/C23H29NO/c1-2-22(25)23(20-12-6-3-7-13-20,21-14-8-4-9-15-21)16-19-24-17-10-5-11-18-24/h2-4,6-9,12-15,25H,5,10-11,16-19H2,1H3","BNNRMFNRNFGLJA-UHFFFAOYSA-N","?","25","potentiometric","a/apparent","NH+","basic",8.86
"10405","O=C(N(C)C)CNC","CN=CC(O)N(C)C","InChI=1S/C5H12N2O/c1-6-4-5(8)7(2)3/h4-5,8H,1-3H3","VPPMZPYCPZYKKH-UHFFFAOYSA-N","?","25","potentiometric","a/apparent","?","basic",8.86
"12146","O(C1(=CC(N=CN(C)C)=CC=C1))CC","CCOC1=CC(=CC=C1)N=CN(C)C","InChI=1S/C11H16N2O/c1-4-14-11-7-5-6-10(8-11)12-9-13(2)3/h5-9H,4H2,1-3H3","LEQCQQGBVXIKRE-UHFFFAOYSA-N","?","25","potentiometric","a1/apparent","N=C-H","basic",8.87
"12308","O(CCN(C)C)CCCCCCCC","CCCCCCCCOCCN(C)C","InChI=1S/C12H27NO/c1-4-5-6-7-8-9-11-14-12-10-13(2)3/h4-12H2,1-3H3","YZFHBUXXJLCVQH-UHFFFAOYSA-N","?",,"potentiometric","a/apparent","?","basic",8.87
"14754","S(=O)(=O)(N)C1(=CC(OC)=C(OC)C(=C1)C(=O)NC3(CC4(N(CC2(=CC=CC=C2))C(C3)CC4)))","COC1C=C(C=C(C=1OC)C(=O)NC1CC2CCC(C1)N2CC1C=CC=CC=1)S(N)(=O)=O","InChI=1S/C23H29N3O5S/c1-30-21-13-19(32(24,28)29)12-20(22(21)31-2)23(27)25-16-10-17-8-9-18(11-16)26(17)14-15-6-4-3-5-7-15/h3-7,12-13,16-18H,8-11,14H2,1-2H3,(H,25,27)(H2,24,28,29)","DPEQTDCQGBSZQP-UHFFFAOYSA-N","?","25","potentiometric","a1/thermodynamic","?","basic",8.87
"11920","O=C([O-])C(O)C(N)C(=O)[O-]","NC(C(O)=C(O)O)C(O)=O","InChI=1S/C4H7NO5/c5-1(3(7)8)2(6)4(9)10/h1,6,9-10H,5H2,(H,7,8)","PBSYQOPHSXQVBB-UHFFFAOYSA-N","?, ?","25","potentiometric","2/thermodynamic","CO2H, CO2H","basic",8.875
"16644","O(C(C1(=CC=CC=C1))C2(=CC=CC=C2))CCN(C)C","CN(C)CCOC(C1C=CC=CC=1)C1C=CC=CC=1","InChI=1S/C17H21NO/c1-18(2)13-14-19-17(15-9-5-3-6-10-15)16-11-7-4-8-12-16/h3-12,17H,13-14H2,1-2H3","ZZVUWRFHKOJYTH-UHFFFAOYSA-N","?","25","mean from 4","a1/apparent","?","basic",8.88
"15830","O=C(NC2(CC3(N(CC1(=CC=CC=C1))C(C2)CC3)))C4(=C(OC)C=CC=C4)","COC1C=CC=CC=1C(=O)NC1CC2CCC(C1)N2CC1C=CC=CC=1","InChI=1S/C22H26N2O2/c1-26-21-10-6-5-9-20(21)22(25)23-17-13-18-11-12-19(14-17)24(18)15-16-7-3-2-4-8-16/h2-10,17-19H,11-15H2,1H3,(H,23,25)","FDLCAYMOZUDADK-UHFFFAOYSA-N","?","25","potentiometric","a1/thermodynamic","?","basic",8.88
"10428","N(CCCC#C)(C)C","CN(C)CCCC#C","InChI=1S/C7H13N/c1-4-5-6-7-8(2)3/h1H,5-7H2,2-3H3","IXRYRPFJSYUEDD-UHFFFAOYSA-N","?",,"potentiometric","a/apparent","?","basic",8.88
"13104","OC1(=C(C=CC=C1)CN)","NCC1C=CC=CC=1O","InChI=1S/C7H9NO/c8-5-6-3-1-2-4-7(6)9/h1-4,9H,5,8H2","KPRZOPQOBJRYSW-UHFFFAOYSA-N","?","25","spectrophotometric","a1/apparent","OH","basic",8.89
"14460","O(C1(=C(O)C=CC=C1CN))C","COC1=C(O)C=CC=C1CN","InChI=1S/C8H11NO2/c1-11-8-6(5-9)3-2-4-7(8)10/h2-4,10H,5,9H2,1H3","MWMAXRIRXNYYMV-UHFFFAOYSA-N","?","25","potentiometric","a1/thermodynamic","?","basic",8.89
"10861","[Si](OC1(CN(CCC)C1))(C)(C)C","CCCN1CC(C1)O[Si](C)(C)C","InChI=1S/C9H21NOSi/c1-5-6-10-7-9(8-10)11-12(2,3)4/h9H,5-8H2,1-4H3","ZGZFKQZGHWUOJS-UHFFFAOYSA-N","?","20","potentiometric","a1/apparent","?","basic",8.89
"13214","OC(CN(CCO)CCCCC)C","CCCCCN(CCO)CC(C)O","InChI=1S/C10H23NO2/c1-3-4-5-6-11(7-8-12)9-10(2)13/h10,12-13H,3-9H2,1-2H3","QVOKLMUIDYYXJU-UHFFFAOYSA-N","?","20","potentiometric","a1/apparent","-NH3%+&","basic",8.9
"16602","O=[N+]([O-])C=2(C1(=NC=C(C(=O)OCC)C(=C1C=CC=2)[O-]))","CCOC(=O)C1C=NC2C(=CC=CC=2[N+]([O-])=O)C=1O","InChI=1S/C12H10N2O5/c1-2-19-12(16)8-6-13-10-7(11(8)15)4-3-5-9(10)14(17)18/h3-6H,2H2,1H3,(H,13,15)","ZTAWASGMGQOLHO-UHFFFAOYSA-N","?","23","mean from 3","a1/apparent","O-H","basic",8.9