"Molecule name","OriginalSmiles","Canonical_QSARr","InChI_Code_QSARr","InChI Key_QSARr","Salt_Solvent (Concatenate)","temp","method","type","group","basicOrAcidic","pKa"
"15207","O=C(OC)C2(=C1(NC=5(C=CC=CC=5(C14(C3(N(CC(C2C3)=CC)CC4))))))","CC=C1CN2CCC34C2CC1C(C(=O)OC)C3=NC1C=CC=CC4=1","InChI=1S/C20H22N2O2/c1-3-12-11-22-9-8-20-14-6-4-5-7-15(14)21-18(20)17(19(23)24-2)13(12)10-16(20)22/h3-7,13,16-17H,8-11H2,1-2H3","UMGIOBCVRLYQOW-UHFFFAOYSA-N","?",,"mean from 2","a/apparent","?","basic",7.46
"14888","O=C([O-])C(C(CO)CC=1(N(C=NC=1)C))CC","CCC(C(CC1=CN=CN1C)CO)=C(O)O","InChI=1S/C11H18N2O3/c1-3-10(11(15)16)8(6-14)4-9-5-12-7-13(9)2/h5,7-8,14-16H,3-4,6H2,1-2H3","ILKTXOSWHHFKEA-UHFFFAOYSA-N","?","30","potentiometric","a/apparent","?","basic",7.47
"10100","N1(=C(N)C=C(C)C=C1)","CC1=CC(N)=NC=C1","InChI=1S/C6H8N2/c1-5-2-3-8-6(7)4-5/h2-4H,1H3,(H2,7,8)","ORLGLBZRQYOWNA-UHFFFAOYSA-N","?","29","mean from 3","a1/apparent","?","basic",7.48
"12089","N1(=C(NC2(=C1C=CC=C2))N)","NC1NC2C=CC=CC=2N=1","InChI=1S/C7H7N3/c8-7-9-5-3-1-2-4-6(5)10-7/h1-4H,(H3,8,9,10)","JWYUFVNJZUSCSM-UHFFFAOYSA-N","?","20","mean from 2","a1/thermodynamic","?","basic",7.49
"10763","N(C1(=CC=CC=C1))(C(C)(C)C)C","CN(C1C=CC=CC=1)C(C)(C)C","InChI=1S/C11H17N/c1-11(2,3)12(4)10-8-6-5-7-9-10/h5-9H,1-4H3","WIZSMOISUQQDDU-UHFFFAOYSA-N","?","25","mean from 3","a1/thermodynamic","NH+","basic",7.5
"14904","OC(CN(CC1(=CC=CC=C1))CC(O)C)C","CC(O)CN(CC1C=CC=CC=1)CC(C)O","InChI=1S/C13H21NO2/c1-11(15)8-14(9-12(2)16)10-13-6-4-3-5-7-13/h3-7,11-12,15-16H,8-10H2,1-2H3","NPMGKAJEKWZCIO-UHFFFAOYSA-N","?",,"potentiometric","a/apparent","?","basic",7.5
"15740","O=C(C1(=CC=CC=C1))CCCCN2(CCOCC2)","OC(=CCCCN1CCOCC1)C1C=CC=CC=1","InChI=1S/C15H21NO2/c17-15(14-6-2-1-3-7-14)8-4-5-9-16-10-12-18-13-11-16/h1-3,6-8,17H,4-5,9-13H2","ARXUROIWWIHZIJ-UHFFFAOYSA-N","?","25","potentiometric","a1/thermodynamic","?","basic",7.5
"15632","OC(CN(CCO)CCCCCCCCCC)C","CCCCCCCCCCN(CCO)CC(C)O","InChI=1S/C15H33NO2/c1-3-4-5-6-7-8-9-10-11-16(12-13-17)14-15(2)18/h15,17-18H,3-14H2,1-2H3","ZBUSVQFNYVKBPR-UHFFFAOYSA-N","?","20","potentiometric","a1/apparent","-NH3%+&","basic",7.5
"16673","OC(CN(CC(O)CC)CCCCCCCC)CC","CCCCCCCCN(CC(O)CC)CC(O)CC","InChI=1S/C16H35NO2/c1-4-7-8-9-10-11-12-17(13-15(18)5-2)14-16(19)6-3/h15-16,18-19H,4-14H2,1-3H3","UNSHGPXUKXAIDF-UHFFFAOYSA-N","?","20","potentiometric","a1/apparent","-NH3%+&","basic",7.5
"10430","ClC(CCl)CN(C)C","CN(C)CC(Cl)CCl","InChI=1S/C5H11Cl2N/c1-8(2)4-5(7)3-6/h5H,3-4H2,1-2H3","PWRALTDUHCCTCT-UHFFFAOYSA-N","?","25","potentiometric","a1/apparent","?","basic",7.5
"10496","ClCCN(CCO)C","CN(CCO)CCCl","InChI=1S/C5H12ClNO/c1-7(3-2-6)4-5-8/h8H,2-5H2,1H3","DOIGXYACGZWLMR-UHFFFAOYSA-N","?","15","potentiometric","a/apparent","?","basic",7.5
"14144","O=C(N=C(N(C)C)N(C)C)C","CN(C)C(=NC(=C)O)N(C)C","InChI=1S/C7H15N3O/c1-6(11)8-7(9(2)3)10(4)5/h11H,1H2,2-5H3","VTRQCAKXYQQXCJ-UHFFFAOYSA-N","?","25","potentiometric","a1/apparent","?","basic",7.5
"15941","FC2(=C(C(=O)C1(=C(N(C)N=C1C)N(C(=O)CN)C))C=CC=C2)","CC1=NN(C)C(=C1C(=O)C1=CC=CC=C1F)N(C)C(O)C=N","InChI=1S/C15H17FN4O2/c1-9-13(14(22)10-6-4-5-7-11(10)16)15(20(3)18-9)19(2)12(21)8-17/h4-8,12,17,21H,1-3H3","MFFPGYSRWHNMPX-UHFFFAOYSA-N","?","27",,"a1/apparent","N(1+)-H","basic",7.52
"15428","O=C(OCCN(CC)CC)C2(=CC=1(C(=CC=CC=1)C=C2))","CCN(CCOC(=O)C1=CC2=CC=CC=C2C=C1)CC","InChI=1S/C17H21NO2/c1-3-18(4-2)11-12-20-17(19)16-10-9-14-7-5-6-8-15(14)13-16/h5-10,13H,3-4,11-12H2,1-2H3","KSFWRAWIFZSUSG-UHFFFAOYSA-N","?","25",,"apparent","?","basic",7.52
"15882","S3(C(C(C=1(SC=CC=1))=CC(N2(CCCCCCC2))C)=CC=C3)","CC(C=C(C1=CC=CS1)C1=CC=CS1)N1CCCCCCC1","InChI=1S/C19H25NS2/c1-16(20-11-5-3-2-4-6-12-20)15-17(18-9-7-13-21-18)19-10-8-14-22-19/h7-10,13-16H,2-6,11-12H2,1H3","OUEGCNSDICIEMB-UHFFFAOYSA-N","?","25","potentiometric","a/apparent","NH+","basic",7.52
"16829","O=C(OC(C1(=CC=CC=C1))CCN(CC)CC)C2(=CC=CC=C2)","CCN(CCC(OC(=O)C1C=CC=CC=1)C1C=CC=CC=1)CC","InChI=1S/C20H25NO2/c1-3-21(4-2)16-15-19(17-11-7-5-8-12-17)23-20(22)18-13-9-6-10-14-18/h5-14,19H,3-4,15-16H2,1-2H3","VPRGXNLHFBBDFS-UHFFFAOYSA-N","?","25","potentiometric","a1/apparent","?","basic",7.53
"14817","S(=O)(=O)([O-])C14(C3(=CCOC7(C1C2(N(C=6(C=CC=CC=6(C25(CCN(C3)C5(C4)))))C(C7)=O))))","OC1=CC2OCC=C3CN4CCC56C4CC3(C2C5N1C1C=CC=CC6=1)S(O)(=O)=O","InChI=1S/C21H22N2O5S/c24-17-9-15-18-19-20(13-3-1-2-4-14(13)23(17)19)6-7-22-11-12(5-8-28-15)21(18,10-16(20)22)29(25,26)27/h1-5,9,15-16,18-19,24H,6-8,10-11H2,(H,25,26,27)","VDJJIGKCDYXHLM-UHFFFAOYSA-N","?",,,"a/apparent","?","basic",7.53
"17827","O=C1(NOCC1N)","N=C1CONC1O","InChI=1S/C3H6N2O2/c4-2-1-7-5-3(2)6/h3-6H,1H2","IBUUJOOHXCRINS-UHFFFAOYSA-N","?","25",,"a2/apparent","?","basic",7.53
"15219","N#CC(C1(=CC=CC=C1))(C2(=CC=CC=C2))C(CN3(CCCCC3))C","CC(CN1CCCCC1)C(C#N)(C1C=CC=CC=1)C1C=CC=CC=1","InChI=1S/C22H26N2/c1-19(17-24-15-9-4-10-16-24)22(18-23,20-11-5-2-6-12-20)21-13-7-3-8-14-21/h2-3,5-8,11-14,19H,4,9-10,15-17H2,1H3","HGKFSYSKZCQWHP-UHFFFAOYSA-N","?","25","potentiometric","a/apparent","NH+","basic",7.54
"13537","O=C(NCCC=1(N=CNC=1))CNC","CN=CC(O)NCCC1=CNC=N1","InChI=1S/C8H14N4O/c1-9-5-8(13)11-3-2-7-4-10-6-12-7/h4-6,8,11,13H,2-3H2,1H3,(H,10,12)","QTAQSXPEONTVCS-UHFFFAOYSA-N","?, ?","24.9","potentiometric","a2/apparent","?, ?","basic",7.54
"12153","S(C(=O)CCCC=1(N=CNC=1))CCC","CCCSC(O)=CCCC1=CNC=N1","InChI=1S/C10H16N2OS/c1-2-6-14-10(13)5-3-4-9-7-11-8-12-9/h5,7-8,13H,2-4,6H2,1H3,(H,11,12)","LWPSGYCTAOKVKM-UHFFFAOYSA-N","?","30",,"a/apparent","?","basic",7.55
"14702","OC1(=C(C=CC=C1)CN(C(C)C)C(C)C)","CC(C)N(CC1C=CC=CC=1O)C(C)C","InChI=1S/C13H21NO/c1-10(2)14(11(3)4)9-12-7-5-6-8-13(12)15/h5-8,10-11,15H,9H2,1-4H3","SCHYRKWCWJLCIY-UHFFFAOYSA-N","?","25","potentiometric","a1/apparent","?","basic",7.55
"15894","O=[N+]([O-])C=3(C2(=C(NCCCO)C=1(C(=CC=CC=1)N=C2C=CC=3)))","[O-][N+](=O)C1=CC=CC2=NC3=CC=CC=C3C(NCCCO)=C21","InChI=1S/C16H15N3O3/c20-10-4-9-17-16-11-5-1-2-6-12(11)18-13-7-3-8-14(15(13)16)19(21)22/h1-3,5-8,20H,4,9-10H2,(H,17,18)","JDGFSJJFVQICMI-UHFFFAOYSA-N","?","25","spectrophotometric","a1/apparent","?","basic",7.55
"15929","O=C(OC1(CC2(N(C)C(C1)C3(C2O3))))C(C4(=CC=CC=C4))CO","CN1C2CC(CC1C1OC21)OC(O)=C(CO)C1C=CC=CC=1","InChI=1S/C17H21NO4/c1-18-13-7-11(8-14(18)16-15(13)22-16)21-17(20)12(9-19)10-5-3-2-4-6-10/h2-6,11,13-16,19-20H,7-9H2,1H3","OVTBCPZWBVWCQU-UHFFFAOYSA-N","?","23","mean from 3","b1/apparent","?","basic",7.55
"11555","O=C([O-])CCC=1(N=CNC=1)","OC(O)=CCC1=CNC=N1","InChI=1S/C6H8N2O2/c9-6(10)2-1-5-3-7-4-8-5/h2-4,9-10H,1H2,(H,7,8)","HGFCMLRDXQCETL-UHFFFAOYSA-N","?","20","potentiometric","a2/apparent","?","basic",7.55
"14438","O=C(OC)C1(=CCCN(C1)C)","CN1CC(=CCC1)C(=O)OC","InChI=1S/C8H13NO2/c1-9-5-3-4-7(6-9)8(10)11-2/h4H,3,5-6H2,1-2H3","HJJPJSXJAXAIPN-UHFFFAOYSA-N","?","21","mean from 3","a1/apparent","?","basic",7.55
"15826","O=C(N2(C1(=C(OC)C=CC=C1C35(C2CCC4(C3N(CCC4)CC5)(CC)))))C","CCC12CCC3N(C(=C)O)C4=C(C=CC=C4OC)C43CCN(CCC1)C42","InChI=1S/C22H30N2O2/c1-4-21-10-6-13-23-14-12-22(20(21)23)16-7-5-8-17(26-3)19(16)24(15(2)25)18(22)9-11-21/h5,7-8,18,20,25H,2,4,6,9-14H2,1,3H3","WZVAFVAUDJTJQS-UHFFFAOYSA-N","?","25","mean from 2","a/thermodynamic","?","basic",7.57
"15474","OC1(=C(O)C=CC2(=C1C4(C3(C(N(C)CCC3(C2))CCC4))))","CN1CCC2CC3C=CC(O)=C(O)C=3C3CCCC1C23","InChI=1S/C17H23NO2/c1-18-8-7-11-9-10-5-6-14(19)17(20)16(10)12-3-2-4-13(18)15(11)12/h5-6,11-13,15,19-20H,2-4,7-9H2,1H3","FCYVJOGXMFABLE-UHFFFAOYSA-N","?","25","potentiometric","a1/apparent","?","basic",7.58
"12713","O=C([O-])CONC(=N)N","NC(=N)NOC=C(O)O","InChI=1S/C3H7N3O3/c4-3(5)6-9-1-2(7)8/h1,7-8H,(H4,4,5,6)","SHIFXMFWMWEXOT-UHFFFAOYSA-N","?","23","potentiometric","a2/apparent","?","basic",7.58
"14684","O=C1(C(O)CCCN(CCC1)C(C)(C)C)","CC(C)(C)N1CCCC(O)C(O)=CCC1 |c:11|","InChI=1S/C12H23NO2/c1-12(2,3)13-8-4-6-10(14)11(15)7-5-9-13/h6,11,14-15H,4-5,7-9H2,1-3H3/b10-6+","KRYRNBWTCBCXAV-UXBLZVDNSA-N","?",,"potentiometric","a/apparent","?","basic",7.6
"16674","OC(CN(CC(O)C)CCCCCCCCCC)C","CCCCCCCCCCN(CC(C)O)CC(C)O","InChI=1S/C16H35NO2/c1-4-5-6-7-8-9-10-11-12-17(13-15(2)18)14-16(3)19/h15-16,18-19H,4-14H2,1-3H3","BVNRDHVWLFPWFU-UHFFFAOYSA-N","?",,"potentiometric","a/apparent","prot.","basic",7.6
"14825","O=C4(NC(CC=3(NC(C=C2(N=C(CC1(NC(=O)C(C1CC)C))C(=C2CCC(=O)[O-])C))=C(C=3C)CCC(=O)[O-]))C(C4CC)C)","CC1C(CC=C(O)O)=C(C=C2N=C(CC3N=C(O)C(C)C3CC)C(C)=C2CC=C(O)O)NC=1CC1N=C(O)C(CC)C1C","InChI=1S/C33H46N4O6/c1-7-20-19(6)32(42)37-27(20)14-25-18(5)23(10-12-31(40)41)29(35-25)15-28-22(9-11-30(38)39)17(4)24(34-28)13-26-16(3)21(8-2)33(43)36-26/h11-12,15-16,19-21,26-27,34,38-41H,7-10,13-14H2,1-6H3,(H,36,43)(H,37,42)","BHVOSWHRPAPPJS-UHFFFAOYSA-N","?",,"spectrophotometric","a/apparent","?","basic",7.6
"17404","O=C(CN)CN","NCC(O)C=N","InChI=1S/C3H8N2O/c4-1-3(6)2-5/h1,3-4,6H,2,5H2","LGDXWCWJJWECTG-UHFFFAOYSA-N","?, ?","22","potentiometric","a1/apparent","?, ?","basic",7.605
"14340","O=C([O-])CCCC=1(N=CNC=1)","OC(O)=CCCC1=CNC=N1","InChI=1S/C7H10N2O2/c10-7(11)3-1-2-6-4-8-5-9-6/h3-5,10-11H,1-2H2,(H,8,9)","OWHNOELWUDQOLU-UHFFFAOYSA-N","?","26","potentiometric","a2/apparent","?","basic",7.62
"12602","N#CCCN(CC)CC","CCN(CCC#N)CC","InChI=1S/C7H14N2/c1-3-9(4-2)7-5-6-8/h3-5,7H2,1-2H3","LFFKXGFSDGRFQA-UHFFFAOYSA-N","?","26","mean from 3","a1/apparent","?","basic",7.62
"13829","N2(=C(N)C=1(C(=CC=CC=1)C=C2))","NC1=NC=CC2=CC=CC=C21","InChI=1S/C9H8N2/c10-9-8-4-2-1-3-7(8)5-6-11-9/h1-6H,(H2,10,11)","OSILBMSORKFRTB-UHFFFAOYSA-N","?","20","potentiometric","a/apparent","?","basic",7.62
"16697","[S-]C1(=NC=NC2(=C1N=CN2C3(OC(CO)C(C3O)O)))","OCC1OC(C(O)C1O)N1C=NC2=C(S)N=CN=C12","InChI=1S/C10H12N4O4S/c15-1-4-6(16)7(17)10(18-4)14-3-13-5-8(14)11-2-12-9(5)19/h2-4,6-7,10,15-17H,1H2,(H,11,12,19)","NKGPJODWTZCHGF-UHFFFAOYSA-N","?",,"mean from 2","a/apparent","?","basic",7.63
"17377","N(N)(CC)CC","CCN(N)CC","InChI=1S/C4H12N2/c1-3-6(5)4-2/h3-5H2,1-2H3","IFZHGQSUNAKKSN-UHFFFAOYSA-N","?","27","mean from 3","a1/apparent","?","basic",7.63
"14117","O=C(OCC)C(N)CC(C)C","CC(C)CC(=N)C(O)OCC","InChI=1S/C8H17NO2/c1-4-11-8(10)7(9)5-6(2)3/h6,8-10H,4-5H2,1-3H3","JOBKDVLQHIJQBE-UHFFFAOYSA-N","?, ?","25","potentiometric","apparent","NH3+, ?","basic",7.63
"17800","N1(=C(N(C)C=C1)C)","CC1=NC=CN1C","InChI=1S/C5H8N2/c1-5-6-3-4-7(5)2/h3-4H,1-2H3","GIWQSPITLQVMSG-UHFFFAOYSA-N","?","25","potentiometric","a1/apparent","?","basic",7.64
"15033","N1(=C(N(C)C)NC2(=C1C=C3(CCCCC3(=C2))))","CN(C)C1NC2C=C3CCCCC3=CC=2N=1","InChI=1S/C13H17N3/c1-16(2)13-14-11-7-9-5-3-4-6-10(9)8-12(11)15-13/h7-8H,3-6H2,1-2H3,(H,14,15)","LIZSALYXEPCUDW-UHFFFAOYSA-N","?","20","spectrophotometric","a/apparent","?","basic",7.65
"16326","O2(C=1(C=3(C(N=C(C=1C(C2C)C)C)=CC=C(C=3)C)))","CC1C=C2C3OC(C)C(C)C=3C(C)=NC2=CC=1","InChI=1S/C15H17NO/c1-8-5-6-13-12(7-8)15-14(10(3)16-13)9(2)11(4)17-15/h5-7,9,11H,1-4H3","UGVDGAWMKBFFPQ-UHFFFAOYSA-N","?","20","spectrophotometric","a1/thermodynamic","NH(+)","basic",7.65
"12854","N1(=C(N=C(C)C=C1N)N)","CC1C=C(N)N=C(N)N=1","InChI=1S/C5H8N4/c1-3-2-4(6)9-5(7)8-3/h2H,1H3,(H4,6,7,8,9)","HERHQNVDSHUKAK-UHFFFAOYSA-N","?","25","mean from 2","a1/apparent","?","basic",7.65
"14909","O=C(OCC)CC(N(C)C)C1(=CC=CC=C1)","CN(C)C(C=C(O)OCC)C1C=CC=CC=1","InChI=1S/C13H19NO2/c1-4-16-13(15)10-12(14(2)3)11-8-6-5-7-9-11/h5-10,12,15H,4H2,1-3H3","MQYSMUHZSZZJPW-UHFFFAOYSA-N","?","20","potentiometric","b/apparent","?","basic",7.66
"17374","N(NCC)CC","CCNNCC","InChI=1S/C4H12N2/c1-3-5-6-4-2/h5-6H,3-4H2,1-2H3","YCBOYOYVDOUXLH-UHFFFAOYSA-N","?","29","mean from 2","a1/apparent","?","basic",7.66
"15669","N1(=CN(C)C(=C1)C2(=CC=C(N=CNC(C)C)C=C2))","CC(C)N/C=N/C1C=CC(=CC=1)C1=CN=CN1C","InChI=1S/C14H18N4/c1-11(2)16-9-17-13-6-4-12(5-7-13)14-8-15-10-18(14)3/h4-11H,1-3H3,(H,16,17)","OOASGQQJXFMHRN-UHFFFAOYSA-N","?, ?","25","potentiometric","a1/apparent","NH(1+), NH(1+)","basic",7.67
"15904","O=C4(C1(OC=5(C(OC)=CC=C3(C=5(C12(C(C(N(C)CC2)C3)CC4))))))","COC1C=CC2CC3C4CC=C(O)C5OC=1C=2C45CCN3C","InChI=1S/C18H21NO3/c1-19-8-7-18-11-4-5-13(20)17(18)22-16-14(21-2)6-3-10(15(16)18)9-12(11)19/h3,5-6,11-12,17,20H,4,7-9H2,1-2H3","MLISXUQVRWYXAH-UHFFFAOYSA-N","?","22","mean from 2","b1/apparent","?","basic",7.67
"15339","[Se-]C1(=NC(=NC2(=C1N=CN2C3(OC(CO)C(C3O)O)))N)","NC1=NC2=C(N=CN2C2OC(CO)C(O)C2O)C([Se-])=N1","InChI=1S/C10H13N5O4Se/c11-10-13-7-4(8(20)14-10)12-2-15(7)9-6(18)5(17)3(1-16)19-9/h2-3,5-6,9,16-18H,1H2,(H3,11,13,14,20)/p-1","JEWAOLSIJOZQMU-UHFFFAOYSA-M","?","25","spectrophotometric","a1/apparent","N-H","basic",7.68
"16027","N1(=C(NC2(=C1C=C3(CCCCC3(=C2))))N)","NC1NC2C=C3CCCCC3=CC=2N=1","InChI=1S/C11H13N3/c12-11-13-9-5-7-3-1-2-4-8(7)6-10(9)14-11/h5-6H,1-4H2,(H3,12,13,14)","KDDITOVEJPNECU-UHFFFAOYSA-N","?","20","spectrophotometric","a/apparent","?","basic",7.69
"15724","P(=O)([O-])([O-])C=1(N=C2(C(O)C(O)C(C(N2(C=1))CO)O))","OCC1C(O)C(O)C(O)C2=NC(=CN21)P(O)(O)=O","InChI=1S/C8H13N2O7P/c11-2-3-5(12)6(13)7(14)8-9-4(1-10(3)8)18(15,16)17/h1,3,5-7,11-14H,2H2,(H2,15,16,17)","HURIBEZHYQHUKI-UHFFFAOYSA-N","?","25",,"a1/apparent","O-Na","basic",7.69
"10905","N1(CCC(NNC(C)C)CC1)(C)","CC(C)NNC1CCN(C)CC1","InChI=1S/C9H21N3/c1-8(2)10-11-9-4-6-12(3)7-5-9/h8-11H,4-7H2,1-3H3","OJFOMASDMLDWEX-UHFFFAOYSA-N","?, ?","20","potentiometric","a2/apparent","?, ?","basic",7.695
"16118","O=C(NC1(=C(C=CC=C1)C))CN2(CCCCC2)","CC1=CC=CC=C1/N=C(/O)\CN1CCCCC1","InChI=1S/C14H20N2O/c1-12-7-3-4-8-13(12)15-14(17)11-16-9-5-2-6-10-16/h3-4,7-8H,2,5-6,9-11H2,1H3,(H,15,17)","LWJQUXGMHVZDSY-UHFFFAOYSA-N","?","20","potentiometric","a/thermodynamic","?","basic",7.7
"15646","O=C2(N1(C(=CCCC1)C3(CN4(C(C2C3)CCCC4))))","OC1=C2CC(CN3CCCCC32)C2=CCCCN21","InChI=1S/C15H22N2O/c18-15-12-9-11(13-5-2-4-8-17(13)15)10-16-7-3-1-6-14(12)16/h5,11,14,18H,1-4,6-10H2","BJZZCKDSCRXFSL-UHFFFAOYSA-N","?","20","potentiometric","a/apparent","?","basic",7.7
"15645","O=C1(N4(C(C2(CN3(C(C1C2)CCCC3)))CCCC4))","OC1=C2CC(CN3CCCCC32)C2CCCCN12","InChI=1S/C15H24N2O/c18-15-12-9-11(13-5-2-4-8-17(13)15)10-16-7-3-1-6-14(12)16/h11,13-14,18H,1-10H2","MZGBEIBZNYSOSU-UHFFFAOYSA-N","?","20","potentiometric","a/apparent","?","basic",7.7
"12490","O2(CCN(CC1(=C(O)C=CC=C1))CC2)","OC1C=CC=CC=1CN1CCOCC1","InChI=1S/C11H15NO2/c13-11-4-2-1-3-10(11)9-12-5-7-14-8-6-12/h1-4,13H,5-9H2","OYLIEVIKIUHKTG-UHFFFAOYSA-N","?","25","mean from 2","a1/apparent","N(1+)-H","basic",7.71
"16116","O=C(NCC1(=CC=CC=C1))CN2(CCCCC2)","O/C(/CN1CCCCC1)=N/CC1C=CC=CC=1","InChI=1S/C14H20N2O/c17-14(12-16-9-5-2-6-10-16)15-11-13-7-3-1-4-8-13/h1,3-4,7-8H,2,5-6,9-12H2,(H,15,17)","LVXRORSBGFMVNL-UHFFFAOYSA-N","?","25","potentiometric","a1/apparent","NH","basic",7.71
"15118","N=C(C1(=C(C=CC=C1C)C))C2(=CC=CC=C2)","CC1C=CC=C(C)C=1C(=N)C1C=CC=CC=1","InChI=1S/C15H15N/c1-11-7-6-8-12(2)14(11)15(16)13-9-4-3-5-10-13/h3-10,16H,1-2H3","JWYBQCKOYWARFE-UHFFFAOYSA-N","?",,"potentiometric","b/apparent","?","basic",7.71
"12658","O=C(OCC)C(N)CC","CCC(=N)C(O)OCC","InChI=1S/C6H13NO2/c1-3-5(7)6(8)9-4-2/h6-8H,3-4H2,1-2H3","KXRWMUFZWYCMQI-UHFFFAOYSA-N","?","25",,"apparent","NH3%+&","basic",7.71
"16174","ClC2(=CC=C(CN1(CC(O[Si](C)(C)C)C1))C=C2)","C[Si](C)(C)OC1CN(CC2C=CC(Cl)=CC=2)C1","InChI=1S/C13H20ClNOSi/c1-17(2,3)16-13-9-15(10-13)8-11-4-6-12(14)7-5-11/h4-7,13H,8-10H2,1-3H3","YRSPZIKZHWWRNJ-UHFFFAOYSA-N","?","20","potentiometric","a1/apparent","?","basic",7.72
"16237","O=C(NC1(=C(C=CC=C1C)C))CN(CC)CC","CC1C=CC=C(C)C=1/N=C(/O)\CN(CC)CC","InChI=1S/C14H22N2O/c1-5-16(6-2)10-13(17)15-14-11(3)8-7-9-12(14)4/h7-9H,5-6,10H2,1-4H3,(H,15,17)","NNJVILVZKWQKPM-UHFFFAOYSA-N","?","25","mean from 4","a1/apparent","?","basic",7.72
"16428","O=C(OC1(CC2(N(C)C(C1)C3(C2O3))))C(C4(=CC=CC=C4))=C","CN1C2CC(CC1C1OC12)OC(=O)C(=C)C1C=CC=CC=1","InChI=1S/C17H19NO3/c1-10(11-6-4-3-5-7-11)17(19)20-12-8-13-15-16(21-15)14(9-12)18(13)2/h3-7,12-16H,1,8-9H2,2H3","JJNVDCBKBUSUII-UHFFFAOYSA-N","?",,"potentiometric","a/apparent","?","basic",7.72
"10281","O1(CCN(CC)CC1)","CCN1CCOCC1","InChI=1S/C6H13NO/c1-2-7-3-5-8-6-4-7/h2-6H2,1H3","HVCNXQOWACZAFN-UHFFFAOYSA-N","?","25","mean from 4","a1/thermodynamic","?","basic",7.72
"14990","O(C2(=CC=1(NC=3(C(=NC=CC=3(C=1C=C2))C))))C","CC1=NC=CC2=C1NC1C=C(C=CC2=1)OC","InChI=1S/C13H12N2O/c1-8-13-11(5-6-14-8)10-4-3-9(16-2)7-12(10)15-13/h3-7,15H,1-2H3","BXNJHAXVSOCGBA-UHFFFAOYSA-N","?","20","mean from 3","b1/apparent","N-7","basic",7.73
"12986","[S-]C1(=[NH+]C([O-])=CC(=N1)C)","CC1=CC(O)=NC(S)=N1","InChI=1S/C5H6N2OS/c1-3-2-4(8)7-5(9)6-3/h2H,1H3,(H2,6,7,8,9)","HWGBHCRJGXAGEU-UHFFFAOYSA-N","?","20","mean from 2","apparent","?","basic",7.73
"14687","O=C(C1(=CC=C(O)C=C1))CNCC(C)C","CC(C)CN=CC(O)C1=CC=C(O)C=C1","InChI=1S/C12H17NO2/c1-9(2)7-13-8-12(15)10-3-5-11(14)6-4-10/h3-6,8-9,12,14-15H,7H2,1-2H3","HPHIOKTWCBWRDU-UHFFFAOYSA-N","?",,"potentiometric","b/apparent","?","basic",7.74
"16570","ClC3(=CC2(=NC=1(C(=CC(OC)=CC=1)C(=C2C=C3)NC(CCCC[NH+](CC)CC)C)))","COC1=CC2=C(NC(C)CCCCN(CC)CC)C3=CC=C(Cl)C=C3N=C2C=C1","InChI=1S/C24H32ClN3O/c1-5-28(6-2)14-8-7-9-17(3)26-24-20-12-10-18(25)15-23(20)27-22-13-11-19(29-4)16-21(22)24/h10-13,15-17H,5-9,14H2,1-4H3,(H,26,27)","PJIBLJQAPRUBQT-UHFFFAOYSA-N","?",,"potentiometric","b2/apparent","?","basic",7.74
"11967","[S-]C1(=NC=NC2(=C1NC=N2))","SC1=NC=NC2N=CNC=21","InChI=1S/C5H4N4S/c10-5-3-4(7-1-6-3)8-2-9-5/h1-2H,(H2,6,7,8,9,10)","GLVAUDGFNGKCSF-UHFFFAOYSA-N","?","20","mean from 3","a1/apparent","?","basic",7.74
"14569","O=C([O-])C([NH3+])CC=1(N=CNC=1)","N=C(CC1=CNC=N1)C(O)O","InChI=1S/C6H9N3O2/c7-5(6(10)11)1-4-2-8-3-9-4/h2-3,6-7,10-11H,1H2,(H,8,9)","NNHHIYMRANOWMX-UHFFFAOYSA-N","?, ?, ?, ?, ?, ?, ?, ?","25","mean from 3","a2/apparent","?, N+H,NH2+H, ?, N(1+)-H, ?, ?, ?, N(1+)-H","basic",7.742500000000001
"17516","N#CCCN","NCCC#N","InChI=1S/C3H6N2/c4-2-1-3-5/h1-2,4H2","AGSPXMVUFBBBMO-UHFFFAOYSA-N","?","28","mean from 2","b1/apparent","?","basic",7.75
"10296","ClC1(=NC([O-])=CC=C1)","OC1=CC=CC(Cl)=N1","InChI=1S/C5H4ClNO/c6-4-2-1-3-5(8)7-4/h1-3H,(H,7,8)","CLNNBQDAAGDAHI-UHFFFAOYSA-N","?","10",,"a1/thermodynamic","?","basic",7.76
"11925","OCCN(CCO)CCO","OCCN(CCO)CCO","InChI=1S/C6H15NO3/c8-4-1-7(2-5-9)3-6-10/h8-10H,1-6H2","GSEJCLTVZPLZKY-UHFFFAOYSA-N","?","298.2","potentiometric","a1/apparent","NH3(1+)","basic",7.76
"13646","O=C(C1(=CC=C(O)C=C1))CNCC","CCN=CC(O)C1=CC=C(O)C=C1","InChI=1S/C10H13NO2/c1-2-11-7-10(13)8-3-5-9(12)6-4-8/h3-7,10,12-13H,2H2,1H3","LQUOKMLTSJDZIZ-UHFFFAOYSA-N","?",,"potentiometric","b/apparent","?","basic",7.77
"12448","O=C(N1(CCNCC1))C2(=CC=CC=C2)","O=C(C1C=CC=CC=1)N1CCNCC1","InChI=1S/C11H14N2O/c14-11(10-4-2-1-3-5-10)13-8-6-12-7-9-13/h1-5,12H,6-9H2","VUNXBQRNMNVUMV-UHFFFAOYSA-N","?","24","mean from 2","a/apparent","?","basic",7.79
"15333","O(C1(C=CC3(=CCN2(C3(C1)(C(=CCO)C(CO)CC2)))))C","COC1CC23C(C=C1)=CCN2CCC(CO)C3=CCO","InChI=1S/C16H23NO3/c1-20-14-3-2-13-5-8-17-7-4-12(11-19)15(6-9-18)16(13,17)10-14/h2-3,5-6,12,14,18-19H,4,7-11H2,1H3","CDGWQHRMPFJOJA-UHFFFAOYSA-N","?",,"potentiometric","a/apparent","NH+","basic",7.79
"17060","O=C1(OC2(C(C)C)(CNC(C2(C1))C(=O)[O-]))","CC(C)C12CN=C(C1C=C(O)O2)C(O)O","InChI=1S/C10H15NO4/c1-5(2)10-4-11-8(9(13)14)6(10)3-7(12)15-10/h3,5-6,9,12-14H,4H2,1-2H3","CQOFBKAAFRTJQM-UHFFFAOYSA-N","?",,"mean from 2","a2/apparent","?","basic",7.8
"15716","O=C(NC1(=C(C=C(C)C=C1)C))CN2(CCCCC2)","CC1C=C(C)C(=CC=1)/N=C(/O)\CN1CCCCC1","InChI=1S/C15H22N2O/c1-12-6-7-14(13(2)10-12)16-15(18)11-17-8-4-3-5-9-17/h6-7,10H,3-5,8-9,11H2,1-2H3,(H,16,18)","QVLVWAPNNHZUCG-UHFFFAOYSA-N","?","20","potentiometric","a/thermodynamic","?","basic",7.8
"15335","O(C1(C=CC3(=CCN2(C3(C1)(C(=C(CO)CC2)CCO)))))C","COC1CC23C(C=C1)=CCN2CCC(CO)=C3CCO","InChI=1S/C16H23NO3/c1-20-14-3-2-13-5-8-17-7-4-12(11-19)15(6-9-18)16(13,17)10-14/h2-3,5,14,18-19H,4,6-11H2,1H3","MYDVWTSIOHNXED-UHFFFAOYSA-N","?",,"potentiometric","a/apparent","NH+","basic",7.8
"15280","O=C(OC(CN(CC)CC)(CC=C)C)C1(=CC=CC=C1)","CC(CN(CC)CC)(CC=C)OC(=O)C1C=CC=CC=1","InChI=1S/C17H25NO2/c1-5-13-17(4,14-18(6-2)7-3)20-16(19)15-11-9-8-10-12-15/h5,8-12H,1,6-7,13-14H2,2-4H3","MUMJVZRFSXRZKC-UHFFFAOYSA-N","?","25","potentiometric","a1/apparent","?","basic",7.8
"13148","[S-]C1(=NC(=NC(=N1)N)N)","NC1=NC(S)=NC(N)=N1","InChI=1S/C3H5N5S/c4-1-6-2(5)8-3(9)7-1/h(H5,4,5,6,7,8,9)","HRIJSYATNFJXHM-UHFFFAOYSA-N","?",,"potentiometric","a/apparent","?","basic",7.8