"Molecule name","OriginalSmiles","Canonical_QSARr","InChI_Code_QSARr","InChI Key_QSARr","Salt_Solvent (Concatenate)","temp","method","type","group","basicOrAcidic","pKa"
"13821","N=2(C1(=C(C=C(C)C(=C1)C)NC=2))","CC1=CC2N=CNC=2C=C1C","InChI=1S/C9H10N2/c1-6-3-8-9(4-7(6)2)11-5-10-8/h3-5H,1-2H3,(H,10,11)","LJUQGASMPRMWIW-UHFFFAOYSA-N","?","24","mean from 2","a1/apparent","?","basic",6.04
"15324","O=C1(NC(C(=O)NC1CC=2(NC=NC=2))CC=3(NC=NC=3))","OC1N=C(CC2=CN=CN2)C(O)NC=1CC1=CN=CN1","InChI=1S/C12H14N6O2/c19-11-9(1-7-3-13-5-15-7)17-12(20)10(18-11)2-8-4-14-6-16-8/h3-6,11,18-20H,1-2H2,(H,13,15)(H,14,16)","UDAPZPZPIPBQMS-UHFFFAOYSA-N","?, ?","25","mean from 2","a2/apparent","?, ?","basic",6.05
"14749","N1(CC1)","C1CN1","InChI=1S/C2H5N/c1-2-3-1/h3H,1-2H2","NOWKCMXCCJGMRR-UHFFFAOYSA-N","?","22","mean from 2","b/thermodynamic","?","basic",6.05
"17127","O2(C(N1(C(N)=CN=C1))C(O)C(C2CO)O)","NC1=CN=CN1C1OC(CO)C(O)C1O","InChI=1S/C8H13N3O4/c9-5-1-10-3-11(5)8-7(14)6(13)4(2-12)15-8/h1,3-4,6-8,12-14H,2,9H2","NKYAAYKKNSYIIW-UHFFFAOYSA-N","?","27","potentiometric","a1/apparent","imine N3","basic",6.05
"14746","ONC","CNO","InChI=1S/CH5NO/c1-2-3/h2-3H,1H3","CPQCSJYYDADLCZ-UHFFFAOYSA-N","?","25","mean from 3","a1/apparent","NH2","basic",6.05
"13831","N2(=CC1(=C(N)C=CC=C1C=C2))","NC1C=CC=C2C=CN=CC2=1","InChI=1S/C9H8N2/c10-9-3-1-2-7-4-5-11-6-8(7)9/h1-6H,10H2","GUSYANXQYUJOBH-UHFFFAOYSA-N","?","20","potentiometric","a/apparent","?","basic",6.06
"15089","O(C2(=CC=1(N=C(CC(C)C)NC=1C=C2)))CC","CCOC1=CC2N=C(CC(C)C)NC=2C=C1","InChI=1S/C13H18N2O/c1-4-16-10-5-6-11-12(8-10)15-13(14-11)7-9(2)3/h5-6,8-9H,4,7H2,1-3H3,(H,14,15)","YCEYUORGLCNEFA-UHFFFAOYSA-N","?",,,"a1/apparent","=NH(+)","basic",6.07
"15938","O=[N+]([O-])C=2(C1(=C(NCCC[NH+](C)C)C(=CN=C1C=CC=2C)C))","CC1C=CC2=NC=C(C)C(NCCCN(C)C)=C2C=1[N+]([O-])=O","InChI=1S/C16H22N4O2/c1-11-6-7-13-14(16(11)20(21)22)15(12(2)10-18-13)17-8-5-9-19(3)4/h6-7,10H,5,8-9H2,1-4H3,(H,17,18)","ROVRIHQAUQJTMP-UHFFFAOYSA-N","?","25","spectrophotometric","a1/apparent","?","basic",6.07
"17092","O=C(C1(=CC=CC=C1))C=C2(NC=CC=C2)","O=C(CC1C=CC=CN=1)C1C=CC=CC=1","InChI=1S/C13H11NO/c15-13(11-6-2-1-3-7-11)10-12-8-4-5-9-14-12/h1-9H,10H2","CMOXTMGJZNCXEI-UHFFFAOYSA-N","?","25","spectrophotometric","b1/apparent","?","basic",6.08
"16724","O=C([O-])C3(=CC1(=C(OC(=C1C)CN2(C=NC=C2))C=C3))","CC1=C(CN2C=NC=C2)OC2=CC=C(C=C21)C(O)=O","InChI=1S/C14H12N2O3/c1-9-11-6-10(14(17)18)2-3-12(11)19-13(9)7-16-5-4-15-8-16/h2-6,8H,7H2,1H3,(H,17,18)","XQVYIQZBDOGEHG-UHFFFAOYSA-N","?","25",,"a1/apparent","NH","basic",6.08
"17680","N(CC#C)CC#C","C#CCNCC#C","InChI=1S/C6H7N/c1-3-5-7-6-4-2/h1-2,7H,5-6H2","RGSODMOUXWISAG-UHFFFAOYSA-N","?",,"mean from 2","a/apparent","?","basic",6.08
"13357","N1(=C(N=C2(NN=CC2(=C1NC)))NC)","CNC1N=C(NC)N=C2NN=CC=12","InChI=1S/C7H10N6/c1-8-5-4-3-10-13-6(4)12-7(9-2)11-5/h3H,1-2H3,(H3,8,9,10,11,12,13)","XUFVGWGOCUEKDA-UHFFFAOYSA-N","?","20","spectrophotometric","a/apparent","?","basic",6.08
"13755","N1(=C(NC=C1)CC2(=NC=CN2))","C(C1NC=CN=1)C1NC=CN=1","InChI=1S/C7H8N4/c1-2-9-6(8-1)5-7-10-3-4-11-7/h1-4H,5H2,(H,8,9)(H,10,11)","DKWVMFVZPTZPJE-UHFFFAOYSA-N","?, ?","24","mean from 2","a2/apparent","NH, NH","basic",6.085
"13680","O(C(=N)C1(=CC=CC=C1))CCCC","CCCCOC(=N)C1C=CC=CC=1","InChI=1S/C11H15NO/c1-2-3-9-13-11(12)10-7-5-4-6-8-10/h4-8,12H,2-3,9H2,1H3","ACUWHZUIKFVIHV-UHFFFAOYSA-N","?","25",,"b/apparent","?","basic",6.09
"16903","O3(CCN(CCC(C#N)(C1(=CC=CC=C1))C2(=CC=CC=C2))CC3)","N#CC(CCN1CCOCC1)(C1C=CC=CC=1)C1C=CC=CC=1","InChI=1S/C20H22N2O/c21-17-20(18-7-3-1-4-8-18,19-9-5-2-6-10-19)11-12-22-13-15-23-16-14-22/h1-10H,11-16H2","DPKWJKWZGPRUPI-UHFFFAOYSA-N","?","25","potentiometric","a/apparent","?","basic",6.09
"12557","S1(C(=N)N(CC)N=C1C2(=CC=CC=C2))","CCN1N=C(SC1=N)C1C=CC=CC=1","InChI=1S/C10H11N3S/c1-2-13-10(11)14-9(12-13)8-6-4-3-5-7-8/h3-7,11H,2H2,1H3","HHGGOUNNVBOATN-UHFFFAOYSA-N","?",,"spectrophotometric","b/apparent","?","basic",6.1
"15774","N2(=NC(C1(=CC=CC=C1))=CC(=C2NCCCC)C)","CC1C=C(N=NC=1NCCCC)C1C=CC=CC=1","InChI=1S/C15H19N3/c1-3-4-10-16-15-12(2)11-14(17-18-15)13-8-6-5-7-9-13/h5-9,11H,3-4,10H2,1-2H3,(H,16,18)","VNPIQFZTFLLQTN-UHFFFAOYSA-N","?","25","spectrophotometric","a1/apparent","?","basic",6.1
"15939","O=[N+]([O-])C=2(C=1(C(=NC=C(C=1NCCC[NH+](C)C)C)C(C)=CC=2))","CC1=CN=C2C(=C1NCCCN(C)C)C(=CC=C2C)[N+]([O-])=O","InChI=1S/C16H22N4O2/c1-11-6-7-13(20(21)22)14-15(11)18-10-12(2)16(14)17-8-5-9-19(3)4/h6-7,10H,5,8-9H2,1-4H3,(H,17,18)","YTOQPLUEKVBDKT-UHFFFAOYSA-N","?","25","spectrophotometric","a1/apparent","?","basic",6.1
"16880","OC(CN(CCO)CCCCCCCCCCCCCC)CC","CCCCCCCCCCCCCCN(CCO)CC(O)CC","InChI=1S/C20H43NO2/c1-3-5-6-7-8-9-10-11-12-13-14-15-16-21(17-18-22)19-20(23)4-2/h20,22-23H,3-19H2,1-2H3","SOAGJQVOUBBFDV-UHFFFAOYSA-N","?","20","potentiometric","a1/apparent","-NH3%+&","basic",6.1
"15266","OC(CN(CC(O)C)CCCCCCCCCCCCCC)CC","CC(O)CN(CC(O)CC)CCCCCCCCCCCCCC","InChI=1S/C21H45NO2/c1-4-6-7-8-9-10-11-12-13-14-15-16-17-22(18-20(3)23)19-21(24)5-2/h20-21,23-24H,4-19H2,1-3H3","CVXOCPONLQGJAE-UHFFFAOYSA-N","?","20","potentiometric","a1/apparent","-NH3%+&","basic",6.1
"12748","N2(=CC=1(N=CNC=1C=C2))","C1=NC=CC2NC=NC=21","InChI=1S/C6H5N3/c1-2-7-3-6-5(1)8-4-9-6/h1-4H,(H,8,9)","UBOOKRVGOBKDMM-UHFFFAOYSA-N","?",,"potentiometric","a1/apparent","?","basic",6.1
"11354","S(C#N)C(CSC#N)CN(C)C","CN(C)CC(CSC#N)SC#N","InChI=1S/C7H11N3S2/c1-10(2)3-7(12-6-9)4-11-5-8/h7H,3-4H2,1-2H3","BBTGNBWDYMCHGL-UHFFFAOYSA-N","?","25","potentiometric","a1/apparent","?","basic",6.1
"13863","OC2(=CC=1(N=CN(C=1C=C2)C))","CN1C=NC2C=C(O)C=CC1=2","InChI=1S/C8H8N2O/c1-10-5-9-7-4-6(11)2-3-8(7)10/h2-5,11H,1H3","NDDDURSMVVKBTL-UHFFFAOYSA-N","?","20","potentiometric","a1/apparent","?","basic",6.1
"11273","S1(C(=NN)N(C)C2(=C1C=CC=C2))","CN1C(N=N)SC2C=CC=CC1=2","InChI=1S/C8H9N3S/c1-11-6-4-2-3-5-7(6)12-8(11)10-9/h2-5,8-9H,1H3","XFJKTUAQUSVOIE-UHFFFAOYSA-N","?","20","potentiometric","a/apparent","?","basic",6.1
"13966","O(C2(=CC1(=C(NCC1)C=C2)))C","COC1=CC2CCNC=2C=C1","InChI=1S/C9H11NO/c1-11-8-2-3-9-7(6-8)4-5-10-9/h2-3,6,10H,4-5H2,1H3","YYDYAQAVAHKFJO-UHFFFAOYSA-N","?","20","spectrophotometric","a1/apparent","N-H","basic",6.1
"16002","N2(=NC1(=C(CCCC1)C3(=C2CCCC3)))","C1CCCC2C3CCCCC=3N=NC=21","InChI=1S/C12H16N2/c1-3-7-11-9(5-1)10-6-2-4-8-12(10)14-13-11/h1-8H2","HTIHRECSSRIKKJ-UHFFFAOYSA-N","?","20","potentiometric","a/apparent","?","basic",6.12
"17020","O(C2(=CC=1(N=C(CCC)NC=1C=C2)))CC","CCOC1=CC2N=C(CCC)NC=2C=C1","InChI=1S/C12H16N2O/c1-3-5-12-13-10-7-6-9(15-4-2)8-11(10)14-12/h6-8H,3-5H2,1-2H3,(H,13,14)","SSCVLICTDCUAGL-UHFFFAOYSA-N","?",,,"a1/apparent","=NH(+)","basic",6.12
"10314","N1(=C(NC)C=CN=C1)","CNC1C=CN=CN=1","InChI=1S/C5H7N3/c1-6-5-2-3-7-4-8-5/h2-4H,1H3,(H,6,7,8)","VERCQLOBLOLFMW-UHFFFAOYSA-N","?","23","potentiometric","a/apparent","?","basic",6.12
"13603","N(C1(=CC=CC=C1))(CCC)CCC","CCCN(CCC)C1C=CC=CC=1","InChI=1S/C12H19N/c1-3-10-13(11-4-2)12-8-6-5-7-9-12/h5-9H,3-4,10-11H2,1-2H3","MMFBQHXDINNBMW-UHFFFAOYSA-N","?","23","mean from 2","a1/apparent","?","basic",6.13
"17157","N=3(C=1(C(=CC2(=CC=CC=C2(C=1)))NC=3CC))","CCC1NC2=CC3=CC=CC=C3C=C2N=1","InChI=1S/C13H12N2/c1-2-13-14-11-7-9-5-3-4-6-10(9)8-12(11)15-13/h3-8H,2H2,1H3,(H,14,15)","BAWAHZPNWYHRPE-UHFFFAOYSA-N","?","20","potentiometric","a1/apparent","?","basic",6.14
"15514","O=C2(C1(=C([O-])N=CN=C1C(=O)C3(=C2N=C(C)N3C)))","CC1=NC2=C(C(=O)C3N=CN=C(O)C=3C2=O)N1C","InChI=1S/C11H8N4O3/c1-4-14-7-8(15(4)2)10(17)6-5(9(7)16)11(18)13-3-12-6/h3H,1-2H3,(H,12,13,18)","FKHYFHLCLOJQBU-UHFFFAOYSA-N","?","30","spectrophotometric","a2/apparent","O-H","basic",6.15
"16441","O=[N+]([O-])C=2(C=1(C(=NC=CC=1NCCC[NH+](C)C)C=CC=2C))","CC1C=CC2=NC=CC(NCCCN(C)C)=C2C=1[N+]([O-])=O","InChI=1S/C15H20N4O2/c1-11-5-6-12-14(15(11)19(20)21)13(7-9-17-12)16-8-4-10-18(2)3/h5-7,9H,4,8,10H2,1-3H3,(H,16,17)","WJNSZRIWVKGVHN-UHFFFAOYSA-N","?","25","spectrophotometric","a1/apparent","?","basic",6.15
"10401","[Br]C([N+](=O)[O-])(CN)C","CC(Br)(CN)[N+]([O-])=O","InChI=1S/C3H7BrN2O2/c1-3(4,2-5)6(7)8/h2,5H2,1H3","LYZLSLPMGNLMFP-UHFFFAOYSA-N","?","20","potentiometric","a1/apparent","?","basic",6.15
"17850","N1(=CC=C(C)C=C1)","CC1C=CN=CC=1","InChI=1S/C6H7N/c1-6-2-4-7-5-3-6/h2-5H,1H3","FKNQCJSGGFJEIZ-UHFFFAOYSA-N","?","24","mean from 17","a1/apparent","NH(1+)","basic",6.15
"13411","O(C1(=CC=NC=C1))C2(=CC=CC=C2)","C1=CC=CC=C1OC1C=CN=CC=1","InChI=1S/C11H9NO/c1-2-4-10(5-3-1)13-11-6-8-12-9-7-11/h1-9H","OATKXQIGHQXTDO-UHFFFAOYSA-N","?","25","spectrophotometric","a1/apparent","?","basic",6.16
"15363","S(=O)(C3(=CC(OC)=C(C1(=NC=2(C=NC=CC=2(N1))))C=C3))C","CS(=O)C1=CC(OC)=C(C=C1)C1NC2C=CN=CC=2N=1","InChI=1S/C14H13N3O2S/c1-19-13-7-9(20(2)18)3-4-10(13)14-16-11-5-6-15-8-12(11)17-14/h3-8H,1-2H3,(H,16,17)","JQUKCPUPFALELS-UHFFFAOYSA-N","?","25","mean from 4","a1/apparent","?","basic",6.16
"15356","O(C3(=C(C1(=NC=2(C=NC=CC=2(N1C))))C=CC(=C3)OC))C","COC1C=C(C=CC=1C1=NC2C=NC=CC=2N1C)OC","InChI=1S/C15H15N3O2/c1-18-13-6-7-16-9-12(13)17-15(18)11-5-4-10(19-2)8-14(11)20-3/h4-9H,1-3H3","VVQYNKFYEATCEY-UHFFFAOYSA-N","?","25","spectrophotometric","a1/apparent","?","basic",6.16
"10790","S(=O)(=O)([O-])CCN1(CCOCC1)","OS(=O)(=O)CCN1CCOCC1","InChI=1S/C6H13NO4S/c8-12(9,10)6-3-7-1-4-11-5-2-7/h1-6H2,(H,8,9,10)","SXGZJKUKBWWHRA-UHFFFAOYSA-N","?","23","mean from 4","a1/apparent","SO-H","basic",6.16
"11100","O1(C(=NC2(=C1CCCC2))N(C)C)","CN(C)C1=NC2CCCCC=2O1","InChI=1S/C9H14N2O/c1-11(2)9-10-7-5-3-4-6-8(7)12-9/h3-6H2,1-2H3","LITRNITWYASMHZ-UHFFFAOYSA-N","?","21",,"a1/apparent","NH(+)","basic",6.16
"11074","S1(C(=NC2(=C1CCCC2))N(C)C)","CN(C)C1=NC2CCCCC=2S1","InChI=1S/C9H14N2S/c1-11(2)9-10-7-5-3-4-6-8(7)12-9/h3-6H2,1-2H3","OWJGVWFUEZOFLF-UHFFFAOYSA-N","?","21",,"a1/apparent","NH(+)","basic",6.16
"15287","O=C2(C1(=C([O-])N=CN=C1C(=O)C3(=C2N=C(COC)N3C)))","COCC1=NC2=C(C(=O)C3N=CN=C(O)C=3C2=O)N1C","InChI=1S/C12H10N4O4/c1-16-5(3-20-2)15-8-9(16)11(18)7-6(10(8)17)12(19)14-4-13-7/h4H,3H2,1-2H3,(H,13,14,19)","RSZJIDQKDXBMOO-UHFFFAOYSA-N","?","30","spectrophotometric","a1/apparent","?","basic",6.17
"17021","O(C2(=CC=1(N=C(C(C)C)NC=1C=C2)))CC","CCOC1=CC2N=C(NC=2C=C1)C(C)C","InChI=1S/C12H16N2O/c1-4-15-9-5-6-10-11(7-9)14-12(13-10)8(2)3/h5-8H,4H2,1-3H3,(H,13,14)","MURSWCULQAQRHB-UHFFFAOYSA-N","?",,,"a1/apparent","=NH(+)","basic",6.17
"16906","O=C(C(C1(=CC=CC=C1))CN2(CCOCC2))CC3(=CC=CC=C3)","OC(=CC1C=CC=CC=1)C(CN1CCOCC1)C1C=CC=CC=1","InChI=1S/C20H23NO2/c22-20(15-17-7-3-1-4-8-17)19(18-9-5-2-6-10-18)16-21-11-13-23-14-12-21/h1-10,15,19,22H,11-14,16H2","UVULMSLLPIITGP-UHFFFAOYSA-N","?","20","potentiometric","a/apparent","?","basic",6.17
"12041","ClC2(=CC=C(C1(NC1))C=C2)","ClC1=CC=C(C=C1)C1CN1","InChI=1S/C8H8ClN/c9-7-3-1-6(2-4-7)8-5-10-8/h1-4,8,10H,5H2","LAVPKWQKIHTIQP-UHFFFAOYSA-N","?","25","potentiometric","a1/apparent","?","basic",6.18
"12154","O=C(OC)C(C=1(N=C(CO)NC=1))(C)C","CC(C)(C(=O)OC)C1=CNC(CO)=N1","InChI=1S/C9H14N2O3/c1-9(2,8(13)14-3)6-4-10-7(5-12)11-6/h4,12H,5H2,1-3H3,(H,10,11)","JPEMARDSMPSAQN-UHFFFAOYSA-N","?","25","potentiometric","a1/apparent","OH","basic",6.18
"10265","S1(CNC(C1)C(=O)[O-])","OC(O)C1CSCN=1","InChI=1S/C4H7NO2S/c6-4(7)3-1-8-2-5-3/h4,6-7H,1-2H2","HKNZCUOBAVKFDL-UHFFFAOYSA-N","?, ?","29","mean from 2","a1/apparent","?, ?","basic",6.1850000000000005
"17376","N(N(C)C)(C)C","CN(C)N(C)C","InChI=1S/C4H12N2/c1-5(2)6(3)4/h1-4H3","DHBZRQXIRAEMRO-UHFFFAOYSA-N","?","26","mean from 5","b2/apparent","?","basic",6.19
"13295","[O-]C1(=[N+](C=NC=2(C1=NC=C([O-])N=2))C)","C[N+]1=CN=C2N=C(O)C=NC2=C1O","InChI=1S/C7H6N4O2/c1-11-3-9-6-5(7(11)13)8-2-4(12)10-6/h2-3H,1H3,(H,10,12,13)/p+1","QRHVOSQDFFGSMH-UHFFFAOYSA-O","?","20","potentiometric","a/apparent","?","basic",6.19
"12270","O=C(NCCN1(CCOCC1))C=NO","O=NCC(=O)NCCN1CCOCC1","InChI=1S/C8H15N3O3/c12-8(7-10-13)9-1-2-11-3-5-14-6-4-11/h1-7H2,(H,9,12)","AHWUMPNUNQIEEW-UHFFFAOYSA-N","?","25","potentiometric","a1/thermodynamic","?","basic",6.19
"13404","OC=2(C1(=NC(=CC(=C1C=CC=2)C)C))","CC1C=C(C)N=C2C(O)=CC=CC=12","InChI=1S/C11H11NO/c1-7-6-8(2)12-11-9(7)4-3-5-10(11)13/h3-6,13H,1-2H3","UXFZNPGAWHMSRK-UHFFFAOYSA-N","?","20","spectrophotometric","b/apparent","?","basic",6.2
"17142","O=CC2(C1(=C(C=CC=C1)C3(=C2C=CC=C3)))","OC=C1C2C=CC=CC=2C2C=CC=CC=21","InChI=1S/C14H10O/c15-9-14-12-7-3-1-5-10(12)11-6-2-4-8-13(11)14/h1-9,15H","UDSGTYRXJSKAHQ-UHFFFAOYSA-N","?","25",,"a1/apparent","?","basic",6.2
"16889","O=[N+]([O-])C=3(C2(=C(NCCC[NH2+]C)C=1(C(=CC=CC=1)N=C2C=CC=3)))","CNCCCNC1=C2C(C=CC=C2[N+]([O-])=O)=NC2=CC=CC=C21","InChI=1S/C17H18N4O2/c1-18-10-5-11-19-17-12-6-2-3-7-13(12)20-14-8-4-9-15(16(14)17)21(22)23/h2-4,6-9,18H,5,10-11H2,1H3,(H,19,20)","VPYWZOXJFGOKCP-UHFFFAOYSA-N","?","25","spectrophotometric","a1/apparent","?","basic",6.2
"15934","OC(CN(CC(O)C)CCCCCCCCCCCC)CC","CC(O)CN(CC(O)CC)CCCCCCCCCCCC","InChI=1S/C19H41NO2/c1-4-6-7-8-9-10-11-12-13-14-15-20(16-18(3)21)17-19(22)5-2/h18-19,21-22H,4-17H2,1-3H3","RLKRUFQJCJEZPP-UHFFFAOYSA-N","?","20","potentiometric","a1/apparent","-NH3%+&","basic",6.2
"15481","O=C([O-])C(NC(=O)CCCCCCCCCCCCCCC)CC=1(N=CNC=1)","CCCCCCCCCCCCCCC/C(/O)=N\C(CC1=CNC=N1)=C(O)O","InChI=1S/C22H39N3O3/c1-2-3-4-5-6-7-8-9-10-11-12-13-14-15-21(26)25-20(22(27)28)16-19-17-23-18-24-19/h17-18,27-28H,2-16H2,1H3,(H,23,24)(H,25,26)","TZHSIWZKNVJQOV-UHFFFAOYSA-N","?","15",,"a1/apparent","NH","basic",6.2
"14294","O(C1(=NC(=NC(=C1)C)NN))C","CC1=CC(=NC(NN)=N1)OC","InChI=1S/C6H10N4O/c1-4-3-5(11-2)9-6(8-4)10-7/h3H,7H2,1-2H3,(H,8,9,10)","PCHXNQBTDCVAIT-UHFFFAOYSA-N","?",,"potentiometric","a/apparent","?","basic",6.2
"13807","N2(=CC=1(C(=CC=C(C=1)N)C=C2))","NC1C=C2C=NC=CC2=CC=1","InChI=1S/C9H8N2/c10-9-2-1-7-3-4-11-6-8(7)5-9/h1-6H,10H2","DRGUQIQEUWFBDE-UHFFFAOYSA-N","?","20","potentiometric","a/apparent","?","basic",6.2
"13334","O(C2(=CC=1(N=C(C)NC=1C=C2)))CC","CC1NC2C=CC(=CC=2N=1)OCC","InChI=1S/C10H12N2O/c1-3-13-8-4-5-9-10(6-8)12-7(2)11-9/h4-6H,3H2,1-2H3,(H,11,12)","JDNFGNIUEHOZCP-UHFFFAOYSA-N","?",,,"a1/apparent","=NH(+)","basic",6.22
"11042","N=2(C1(=C(C=CC=C1)NC=2C(C)C))","CC(C)C1NC2C=CC=CC=2N=1","InChI=1S/C10H12N2/c1-7(2)10-11-8-5-3-4-6-9(8)12-10/h3-7H,1-2H3,(H,11,12)","RITUGMAIQCZEOG-UHFFFAOYSA-N","?","25","potentiometric","a/apparent","?","basic",6.23
"15896","N=3(C2(=C1(N=CC=5(CCCCC=5(C1=CC=C2C=4(CCCCC=4(C=3)))))))","C1CCCC2C3=CC=C4C(N=CC5CCCCC=54)=C3N=CC=21","InChI=1S/C20H20N2/c1-3-7-15-13(5-1)11-21-19-17(15)9-10-18-16-8-4-2-6-14(16)12-22-20(18)19/h9-12H,1-8H2","LVLRGYIOBBOZNF-UHFFFAOYSA-N","?","25","potentiometric","a/apparent","?","basic",6.23
"13775","[S-]C1(=NC=NC=2(C1=CN=CN=2))","SC1N=CN=C2N=CN=CC2=1","InChI=1S/C6H4N4S/c11-6-4-1-7-2-8-5(4)9-3-10-6/h1-3H,(H,7,8,9,10,11)","QFLIYZSAUNUZEX-UHFFFAOYSA-N","?",,"potentiometric","a/apparent","?","basic",6.23
"16342","O=[N+]([O-])C3(=CC1(=C(NC2(=C1C=CN=C2C))C=C3))","CC1=NC=CC2=C1NC1C=CC(=CC2=1)[N+]([O-])=O","InChI=1S/C12H9N3O2/c1-7-12-9(4-5-13-7)10-6-8(15(16)17)2-3-11(10)14-12/h2-6,14H,1H3","KHTDXKAUSUJSQZ-UHFFFAOYSA-N","?","25","spectrophotometric","b1/apparent","N-7","basic",6.24
"16496","O2(CCN(CCCOC1(=CC=C(OCCCC)C=C1))CC2)","CCCCOC1=CC=C(C=C1)OCCCN1CCOCC1","InChI=1S/C17H27NO3/c1-2-3-12-20-16-5-7-17(8-6-16)21-13-4-9-18-10-14-19-15-11-18/h5-8H,2-4,9-15H2,1H3","DQKXQSGTHWVTAD-UHFFFAOYSA-N","?","25","potentiometric","a1/apparent","?","basic",6.24
"17647","N(N)CCCCC","CCCCCNN","InChI=1S/C5H14N2/c1-2-3-4-5-7-6/h7H,2-6H2,1H3","YVZACCLFRNQBNO-UHFFFAOYSA-N","?","25","potentiometric","b1/apparent","?","basic",6.25
"10315","N1(=C(N)C=C(C)N=C1)","CC1=CC(N)=NC=N1","InChI=1S/C5H7N3/c1-4-2-5(6)8-3-7-4/h2-3H,1H3,(H2,6,7,8)","LAERIBHKDNBVOO-UHFFFAOYSA-N","?",,"potentiometric","a/apparent","?","basic",6.25
"15046","O=C2(C(=CC(=C1(C=CC=CC=C1))C=C2C)C)","CC1=CC(C=C(C)C1=O)=C1C=CC=CC=C1","InChI=1S/C15H14O/c1-11-9-14(10-12(2)15(11)16)13-7-5-3-4-6-8-13/h3-10H,1-2H3","DFIQHLQGVGHVFV-UHFFFAOYSA-N","?","25","spectrophotometric","a1/apparent","?","basic",6.26
"12439","O(C2(=CC=1(N=C(CC)NC=1C=C2)))CC","CCOC1=CC2N=C(CC)NC=2C=C1","InChI=1S/C11H14N2O/c1-3-11-12-9-6-5-8(14-4-2)7-10(9)13-11/h5-7H,3-4H2,1-2H3,(H,12,13)","FHMRQRALPJXEFE-UHFFFAOYSA-N","?",,,"a1/apparent","=NH(+)","basic",6.27
"13132","ClCCN1(CCOCC1)","ClCCN1CCOCC1","InChI=1S/C6H12ClNO/c7-1-2-8-3-5-9-6-4-8/h1-6H2","ZAPMTSHEXFEPSD-UHFFFAOYSA-N","?","25","spectrophotometric","a1/apparent",">NR-H(+)","basic",6.27
"16250","N1(=C(N=C(N)N=C1N(CC)CC)N(CC)CC)","CCN(CC)C1N=C(N)N=C(N=1)N(CC)CC","InChI=1S/C11H22N6/c1-5-16(6-2)10-13-9(12)14-11(15-10)17(7-3)8-4/h5-8H2,1-4H3,(H2,12,13,14,15)","VJOHPAMUAGYVFA-UHFFFAOYSA-N","?","25","potentiometric","b/apparent","1,9","basic",6.28
"16431","O(N=C(CC(NCC[NH2+]C(CC(=NO)C)(C)C)(C)C)C)C","CON=C(C)CC(C)(C)NCCNC(C)(C)CC(C)N=O","InChI=1S/C15H32N4O2/c1-12(18-20)10-14(3,4)16-8-9-17-15(5,6)11-13(2)19-21-7/h12,16-17H,8-11H2,1-7H3","UEVQFJPDNQIQQU-UHFFFAOYSA-N","?","25","potentiometric","a2/apparent","?","basic",6.28
"13819","N=1(C=C(N)C2(=CC=CC=C2(C=1)))","NC1=CN=CC2=CC=CC=C21","InChI=1S/C9H8N2/c10-9-6-11-5-7-3-1-2-4-8(7)9/h1-6H,10H2","ISIUXVGHQFJYHM-UHFFFAOYSA-N","?","20","potentiometric","a/apparent","?","basic",6.28
"16985","N(C1(=CC=CC=C1))=CNC2(=CC=CC=C2)","C(/NC1C=CC=CC=1)=N\C1C=CC=CC=1","InChI=1S/C13H12N2/c1-3-7-12(8-4-1)14-11-15-13-9-5-2-6-10-13/h1-11H,(H,14,15)","ZQUVDXMUKIVNOW-UHFFFAOYSA-N","?","25",,"a1/apparent","?","basic",6.3
"15935","OC(CN(CCO)CCCCCCCCCCCCCC)C","CCCCCCCCCCCCCCN(CCO)CC(C)O","InChI=1S/C19H41NO2/c1-3-4-5-6-7-8-9-10-11-12-13-14-15-20(16-17-21)18-19(2)22/h19,21-22H,3-18H2,1-2H3","IUONAHXIFONBJX-UHFFFAOYSA-N","?","20","potentiometric","a1/apparent","-NH3%+&","basic",6.3
"13480","N1(=C(N=C(N)C=2(C1=NC(N)=CN=2))N)","NC1=NC(N)=NC2=NC(N)=CN=C12","InChI=1S/C6H7N7/c7-2-1-10-3-4(8)12-6(9)13-5(3)11-2/h1H,(H6,7,8,9,11,12,13)","FXRCFWSUCFIHLF-UHFFFAOYSA-N","?","20","potentiometric","a/apparent","?","basic",6.3
"14727","O=C(OC)C(NC(=O)C)CC=1(N=CNC=1)","CC(O)=NC(CC1=CNC=N1)=C(O)OC","InChI=1S/C9H13N3O3/c1-6(13)12-8(9(14)15-2)3-7-4-10-5-11-7/h4-5,14H,3H2,1-2H3,(H,10,11)(H,12,13)","RUDFZTATRXCLDD-UHFFFAOYSA-N","?","20",,"a1/apparent","N-H","basic",6.3
"15708","ClC2(=CC=C(C(=O)NCCN1(CCOCC1))C=C2)","O=C(NCCN1CCOCC1)C1C=CC(Cl)=CC=1","InChI=1S/C13H17ClN2O2/c14-12-3-1-11(2-4-12)13(17)15-5-6-16-7-9-18-10-8-16/h1-4H,5-10H2,(H,15,17)","YHXISWVBGDMDLQ-UHFFFAOYSA-N","?","20","potentiometric","b1","?","basic",6.31
"15519","N=3(C2(=C1(N=CC(C)=C(C1=CC=C2C(C)=C(C=3)C)C)))","CC1C=NC2=C3N=CC(C)=C(C)C3=CC=C2C=1C","InChI=1S/C16H16N2/c1-9-7-17-15-13(11(9)3)5-6-14-12(4)10(2)8-18-16(14)15/h5-8H,1-4H3","NPAXPTHCUCUHPT-UHFFFAOYSA-N","?","25","potentiometric","a/apparent","?","basic",6.31
"10139","SCC1(=NC=CN1C)","CN1C=CN=C1CS","InChI=1S/C5H8N2S/c1-7-3-2-6-5(7)4-8/h2-3,8H,4H2,1H3","UVWSKIZHAMYEAZ-UHFFFAOYSA-N","?","25","potentiometric","a1/apparent","?","basic",6.31
"13602","N(C1(=CC=CC=C1))C(CC)(CC)C","CC(CC)(CC)NC1C=CC=CC=1","InChI=1S/C12H19N/c1-4-12(3,5-2)13-11-9-7-6-8-10-11/h6-10,13H,4-5H2,1-3H3","SPWKIZIVWPNBTB-UHFFFAOYSA-N","?","25","mean from 2","a/thermodynamic","?","basic",6.32
"15357","O=C([O-])C3(=CC1(=C(N(C)C(=C1C)CN2(C=NC=C2))C=C3))","CN1C(CN2C=NC=C2)=C(C)C2=CC(=CC=C12)C(O)=O","InChI=1S/C15H15N3O2/c1-10-12-7-11(15(19)20)3-4-13(12)17(2)14(10)8-18-6-5-16-9-18/h3-7,9H,8H2,1-2H3,(H,19,20)","MMLBTGWLFUJNGP-UHFFFAOYSA-N","?","25",,"a1/apparent","NH","basic",6.32
"16752","O(C1(=C(C(OC)=CC=C1)C2(=NC=3(C=NC=CC=3(N2)))))C","COC1C=CC=C(OC)C=1C1NC2C=CN=CC=2N=1","InChI=1S/C14H13N3O2/c1-18-11-4-3-5-12(19-2)13(11)14-16-9-6-7-15-8-10(9)17-14/h3-8H,1-2H3,(H,16,17)","SMTKZZCOIPWVML-UHFFFAOYSA-N","?","25","mean from 2","a1/apparent","?","basic",6.34
"11740","S1(C(C(C(=O)[O-])NC1)(C)C)","CC1(C)SCN=C1C(O)O","InChI=1S/C6H11NO2S/c1-6(2)4(5(8)9)7-3-10-6/h5,8-9H,3H2,1-2H3","QIFUTASRMFCSQT-UHFFFAOYSA-N","?","25","potentiometric","a1/apparent","?","basic",6.34
"12471","N(C1(=CC=CC=C1))(C2(CCCCC2))C","CN(C1CCCCC1)C1C=CC=CC=1","InChI=1S/C13H19N/c1-14(12-8-4-2-5-9-12)13-10-6-3-7-11-13/h2,4-5,8-9,13H,3,6-7,10-11H2,1H3","HRBASXKYUKFHKC-UHFFFAOYSA-N","?",,,"a/apparent","?","basic",6.35
"13164","N1(=C(N(C)C)C=CN=C1)","CN(C)C1C=CN=CN=1","InChI=1S/C6H9N3/c1-9(2)6-3-4-7-5-8-6/h3-5H,1-2H3","MSXIOWULDXZJLX-UHFFFAOYSA-N","?","20","potentiometric","a/apparent","?","basic",6.35