"Molecule name","OriginalSmiles","Canonical_QSARr","InChI_Code_QSARr","InChI Key_QSARr","Salt_Solvent (Concatenate)","temp","method","type","group","basicOrAcidic","pKa"
"10447","O=C(OCC)C(N)C","CCOC(O)C(C)=N","InChI=1S/C5H11NO2/c1-3-8-5(7)4(2)6/h5-7H,3H2,1-2H3","ZFEJQFFCNYFGFA-UHFFFAOYSA-N","?, ?","25","potentiometric","apparent","NH3%+&, ?","basic",7.8
"15749","[Si](OC2(CN(CC1(=CC(OC)=CC=C1))C2))(C)(C)C","COC1C=C(CN2CC(C2)O[Si](C)(C)C)C=CC=1","InChI=1S/C14H23NO2Si/c1-16-13-7-5-6-12(8-13)9-15-10-14(11-15)17-18(2,3)4/h5-8,14H,9-11H2,1-4H3","MKJWKLWFXASWBC-UHFFFAOYSA-N","?","20","potentiometric","a1/apparent","?","basic",7.81
"16177","[Si](OC2(CN(C(C1(=CC=CC=C1))C)C2))(C)(C)C","CC(C1C=CC=CC=1)N1CC(C1)O[Si](C)(C)C","InChI=1S/C14H23NOSi/c1-12(13-8-6-5-7-9-13)15-10-14(11-15)16-17(2,3)4/h5-9,12,14H,10-11H2,1-4H3","AJIZXHVQPRGLGM-UHFFFAOYSA-N","?","20","potentiometric","a1/apparent","?","basic",7.82
"17379","N(N)CCCC","CCCCNN","InChI=1S/C4H12N2/c1-2-3-4-6-5/h6H,2-5H2,1H3","XKLVLDXNZDIDKQ-UHFFFAOYSA-N","?","25","potentiometric","b1/apparent","?","basic",7.82
"16238","O=C(NC1(=C(C=CC=C1C)C))CNCC(C)C","CC(C)CN=CC(O)NC1C(C)=CC=CC=1C","InChI=1S/C14H22N2O/c1-10(2)8-15-9-13(17)16-14-11(3)6-5-7-12(14)4/h5-7,9-10,13,16-17H,8H2,1-4H3","IHNBZKKDGGRHJU-UHFFFAOYSA-N","?",,,"a/thermodynamic","?","basic",7.83
"12897","N1(=C(N)C=C(C)C=C1C)","CC1C=C(C)N=C(N)C=1","InChI=1S/C7H10N2/c1-5-3-6(2)9-7(8)4-5/h3-4H,1-2H3,(H2,8,9)","BRBUBVKGJRPRRD-UHFFFAOYSA-N","?",,"potentiometric","a/apparent","?","basic",7.84
"15098","O=C(NC1(=CC=CC=C1))CN2(CCCCC2)","O/C(/CN1CCCCC1)=N/C1C=CC=CC=1","InChI=1S/C13H18N2O/c16-13(11-15-9-5-2-6-10-15)14-12-7-3-1-4-8-12/h1,3-4,7-8H,2,5-6,9-11H2,(H,14,16)","WFECYQKJNWJCBA-UHFFFAOYSA-N","?","20","potentiometric","b1/apparent","?","basic",7.85
"16117","O=C(NC1(=CC=C(C)C=C1))CN2(CCCCC2)","CC1=CC=C(C=C1)/N=C(/O)\CN1CCCCC1","InChI=1S/C14H20N2O/c1-12-5-7-13(8-6-12)15-14(17)11-16-9-3-2-4-10-16/h5-8H,2-4,9-11H2,1H3,(H,15,17)","HHOAPBHLYNWKTL-UHFFFAOYSA-N","?","20","potentiometric","b1/apparent","?","basic",7.85
"12002","N#CC1(C2(CCN(C1)CC2))","N#CC1CN2CCC1CC2","InChI=1S/C8H12N2/c9-5-8-6-10-3-1-7(8)2-4-10/h7-8H,1-4,6H2","ICSMHHPNBLZOLB-UHFFFAOYSA-N","?","25","mean from 2","a1/apparent","?","basic",7.85
"16837","ClC2(=CC=C(NC1(=NC(NCCN(CC)CC)=CC(=N1)C))C=C2)","CC1C=C(NCCN(CC)CC)N=C(NC2C=CC(Cl)=CC=2)N=1","InChI=1S/C17H24ClN5/c1-4-23(5-2)11-10-19-16-12-13(3)20-17(22-16)21-15-8-6-14(18)7-9-15/h6-9,12H,4-5,10-11H2,1-3H3,(H2,19,20,21,22)","AWWYEKXZSQSKDR-UHFFFAOYSA-N","?, ?","25","potentiometric","a2/apparent","?, ?","basic",7.8500000000000005
"17225","N1(CC1)(C)","CN1CC1","InChI=1S/C3H7N/c1-4-2-3-4/h2-3H2,1H3","XLJQPXVBQNJNLW-UHFFFAOYSA-N","?","25","potentiometric","a/thermodynamic","NH%+&","basic",7.86
"12973","OCC1(=NC(C)=C(N1)C)","CC1N=C(CO)NC=1C","InChI=1S/C6H10N2O/c1-4-5(2)8-6(3-9)7-4/h9H,3H2,1-2H3,(H,7,8)","XRUICZARPZYJTK-UHFFFAOYSA-N","?","25","potentiometric","a1/apparent","?","basic",7.88
"10722","OC1(=CC(N=CN(C)C)=CC=C1)","CN(C)C=NC1C=C(O)C=CC=1","InChI=1S/C9H12N2O/c1-11(2)7-10-8-4-3-5-9(12)6-8/h3-7,12H,1-2H3","RKXRPBBZGFLVTF-UHFFFAOYSA-N","?","20","potentiometric","a1/apparent","?","basic",7.88
"16032","N(CC=C)(CC=C)CCCN(CC=C)CC=C","C=CCN(CC=C)CCCN(CC=C)CC=C","InChI=1S/C15H26N2/c1-5-10-16(11-6-2)14-9-15-17(12-7-3)13-8-4/h5-8H,1-4,9-15H2","KKAIREMKWOORCU-UHFFFAOYSA-N","?, ?","22","potentiometric","a1/apparent","?, ?","basic",7.880000000000001
"16248","O1(CCN(CCN(CC(O)C)CC(O)C)CC1)","CC(O)CN(CC(C)O)CCN1CCOCC1","InChI=1S/C12H26N2O3/c1-11(15)9-14(10-12(2)16)4-3-13-5-7-17-8-6-13/h11-12,15-16H,3-10H2,1-2H3","RIHTVFXWBJBDFX-UHFFFAOYSA-N","?",,"potentiometric","a/apparent","?","basic",7.9
"15605","O=C(NC1(=C(C=C(C)C=C1C)C))CN(CC)CC","CC1C=C(C)C=C(C)C=1/N=C(/O)\CN(CC)CC","InChI=1S/C15H24N2O/c1-6-17(7-2)10-14(18)16-15-12(4)8-11(3)9-13(15)5/h8-9H,6-7,10H2,1-5H3,(H,16,18)","GOZBHBFUQHMKQB-UHFFFAOYSA-N","?",,,"a/apparent","?","basic",7.9
"16454","N#CC(C1(=CC=CC=C1))(C2(=CC=CC=C2))C(CN(C)C)C","CC(CN(C)C)C(C#N)(C1C=CC=CC=1)C1C=CC=CC=1","InChI=1S/C19H22N2/c1-16(14-21(2)3)19(15-20,17-10-6-4-7-11-17)18-12-8-5-9-13-18/h4-13,16H,14H2,1-3H3","WDEAKMXEZRUYOK-UHFFFAOYSA-N","?","25","potentiometric","a/apparent","?","basic",7.9
"11901","O=C(OCCN(C)C)C=C","CN(C)CCOC(=O)C=C","InChI=1S/C7H13NO2/c1-4-7(9)10-6-5-8(2)3/h4H,1,5-6H2,2-3H3","DPBJAVGHACCNRL-UHFFFAOYSA-N","?","25","mean from 2","a1/apparent","?","basic",7.9
"16175","[Si](OC2(CN(CC1(=CC=C(F)C=C1))C2))(C)(C)C","C[Si](C)(C)OC1CN(CC2C=CC(F)=CC=2)C1","InChI=1S/C13H20FNOSi/c1-17(2,3)16-13-9-15(10-13)8-11-4-6-12(14)7-5-11/h4-7,13H,8-10H2,1-3H3","YRCCOJVDMMFOSD-UHFFFAOYSA-N","?","20","potentiometric","a1/apparent","?","basic",7.91
"17594","N1(CC1)(CC)","CCN1CC1","InChI=1S/C4H9N/c1-2-5-3-4-5/h2-4H2,1H3","UJGVUACWGCQEAO-UHFFFAOYSA-N","?","24","potentiometric","b/thermodynamic","?","basic",7.91
"16100","O=[N+]([O-])C1(=CC(=C([O-])C=C1)CN2(CCOCC2))","[O-][N+](=O)C1=CC(CN2CCOCC2)=C(O)C=C1","InChI=1S/C11H14N2O4/c14-11-2-1-10(13(15)16)7-9(11)8-12-3-5-17-6-4-12/h1-2,7,14H,3-6,8H2","FHQJAMUJPVTFPX-UHFFFAOYSA-N","?","25","mean from 2","a2/apparent","N-H","basic",7.92
"16236","O=C(NC1(=C(C=CC(=C1)C)C))CN(CC)CC","CC1C=C(/N=C(/O)\CN(CC)CC)C(C)=CC=1","InChI=1S/C14H22N2O/c1-5-16(6-2)10-14(17)15-13-9-11(3)7-8-12(13)4/h7-9H,5-6,10H2,1-4H3,(H,15,17)","ARSWLFMBYRUQCI-UHFFFAOYSA-N","?",,,"a/thermodynamic","?","basic",7.92
"17523","N(N)CCC","CCCNN","InChI=1S/C3H10N2/c1-2-3-5-4/h5H,2-4H2,1H3","UKPBXIFLSVLDPA-UHFFFAOYSA-N","?","25","potentiometric","b1/apparent","?","basic",7.92
"12952","O=C(N1(CCNCC1))C","C=C(O)N1CCNCC1","InChI=1S/C6H12N2O/c1-6(9)8-4-2-7-3-5-8/h7,9H,1-5H2","DJYUKOBHTYWGCE-UHFFFAOYSA-N","?","25","potentiometric","a/apparent","?","basic",7.94
"14874","O=C(NC1(=C(C=CC=C1)C))CN(CC)CC","CC1=CC=CC=C1/N=C(/O)\CN(CC)CC","InChI=1S/C13H20N2O/c1-4-15(5-2)10-13(16)14-12-9-7-6-8-11(12)3/h6-9H,4-5,10H2,1-3H3,(H,14,16)","DMRSJQHLNFZQHW-UHFFFAOYSA-N","?","20","mean from 2","b1/apparent","?","basic",7.95
"16240","O=C(NC1(=C(C=C(C)C=C1)C))CN(CC)CC","CC1C=C(C)C(=CC=1)/N=C(/O)\CN(CC)CC","InChI=1S/C14H22N2O/c1-5-16(6-2)10-14(17)15-13-8-7-11(3)9-12(13)4/h7-9H,5-6,10H2,1-4H3,(H,15,17)","NCOAXMSOFNEVJI-UHFFFAOYSA-N","?","20","potentiometric","a/thermodynamic","?","basic",7.95
"10329","N12(N(CCC1)CCC2)","C1CCN2CCCN21","InChI=1S/C6H12N2/c1-3-7-5-2-6-8(7)4-1/h1-6H2","JZRVLNUANYLZKW-UHFFFAOYSA-N","?","25","mean from 2","a1/apparent","?","basic",7.95
"16119","OCCNC2(CCN(CC1(=CC=CC=C1))CC2)","OCCNC1CCN(CC2C=CC=CC=2)CC1","InChI=1S/C14H22N2O/c17-11-8-15-14-6-9-16(10-7-14)12-13-4-2-1-3-5-13/h1-5,14-15,17H,6-12H2","KXSSEEPLNUNWMD-UHFFFAOYSA-N","?, ?","22","potentiometric","a1/apparent","?, ?","basic",7.955
"16513","O2(C1(=C(O)C=CC5(=C1C34(C2C(O)C=CC3C(N(C)CC4)C5))))","CN1CCC23C4OC5C2=C(CC1C3C=CC4O)C=CC=5O","InChI=1S/C17H19NO3/c1-18-7-6-17-10-3-5-13(20)16(17)21-15-12(19)4-2-9(14(15)17)8-11(10)18/h2-5,10-11,13,16,19-20H,6-8H2,1H3","BQJCRHHNABKAKU-UHFFFAOYSA-N","?","20","mean from 7","b/apparent","?","basic",7.96
"11338","O=C(OC(CN(C)C)C)C(=C)C","CC(=C)C(=O)OC(C)CN(C)C","InChI=1S/C9H17NO2/c1-7(2)9(11)12-8(3)6-10(4)5/h8H,1,6H2,2-5H3","UOISBTHHJANVEM-UHFFFAOYSA-N","?","25","mean from 2","a1/apparent","?","basic",7.96
"16510","O=C4(C1(OC=5(C(O)=CC=C3(C=5(C12(C(C(N(C)CC2)C3)CC4))))))","CN1CCC23C4OC5C2=C(CC1C3CC=C4O)C=CC=5O","InChI=1S/C17H19NO3/c1-18-7-6-17-10-3-5-13(20)16(17)21-15-12(19)4-2-9(14(15)17)8-11(10)18/h2,4-5,10-11,16,19-20H,3,6-8H2,1H3","CHQXNVPLVIAYRY-UHFFFAOYSA-N","?","22","mean from 2","a/apparent","?","basic",7.97
"17294","N1(=C(NC=C1)C)","CC1NC=CN=1","InChI=1S/C4H6N2/c1-4-5-2-3-6-4/h2-3H,1H3,(H,5,6)","LXBGSDVWAMZHDD-UHFFFAOYSA-N","?","29","mean from 5","b1/apparent","=NH2(1+)","basic",7.97
"16537","O=[N+]([O-])C=1(C=3(C(C([O-])=C(C=1)CN2(CCOCC2))=CC=CC=3))","[O-][N+](=O)C1C=C(CN2CCOCC2)C(O)=C2C=CC=CC2=1","InChI=1S/C15H16N2O4/c18-15-11(10-16-5-7-21-8-6-16)9-14(17(19)20)12-3-1-2-4-13(12)15/h1-4,9,18H,5-8,10H2","USGIQJYPTKPHGI-UHFFFAOYSA-N","?","25","spectrophotometric","a2/apparent","R2NH","basic",7.98
"15875","O=C(NC2(C1(=C(C=CC=C1)C3(=C2C=CC=C3))))CN(CC)CC","CCN(C/C(/O)=N\C1C2=CC=CC=C2C2=CC=CC=C21)CC","InChI=1S/C19H22N2O/c1-3-21(4-2)13-18(22)20-19-16-11-7-5-9-14(16)15-10-6-8-12-17(15)19/h5-12,19H,3-4,13H2,1-2H3,(H,20,22)","KETUTHTWZHVOJR-UHFFFAOYSA-N","?","25","potentiometric","a1/apparent","NH","basic",7.98
"10161","O=CN1(CCNCC1)","O=CN1CCNCC1","InChI=1S/C5H10N2O/c8-5-7-3-1-6-2-4-7/h5-6H,1-4H2","MSSDTZLYNMFTKN-UHFFFAOYSA-N","?","25","mean from 3","a1/apparent","NH2%+&","basic",7.98
"15487","ClC3(=C(NC1(=C(C=CC=C1)CC(=O)OCCCN2(CCOCC2)))C(Cl)=CC=C3)","OC(=CC1C=CC=CC=1NC1=C(Cl)C=CC=C1Cl)OCCCN1CCOCC1","InChI=1S/C21H24Cl2N2O3/c22-17-6-3-7-18(23)21(17)24-19-8-2-1-5-16(19)15-20(26)28-12-4-9-25-10-13-27-14-11-25/h1-3,5-8,15,24,26H,4,9-14H2","INQMYBDYIFAGOZ-UHFFFAOYSA-N","?","25","potentiometric","a1/apparent","N-H","basic",7.99
"16601","O=[N+]([O-])C2(=CC1(=C([O-])C(C(=O)OCC)=CN=C1C=C2))","CCOC(=O)C1=CN=C2C=CC(=CC2=C1O)[N+]([O-])=O","InChI=1S/C12H10N2O5/c1-2-19-12(16)9-6-13-10-4-3-7(14(17)18)5-8(10)11(9)15/h3-6H,2H2,1H3,(H,13,15)","DBJCDCSZGDONQQ-UHFFFAOYSA-N","?","23","mean from 3","a1/apparent","O-H","basic",8.0
"14650","O=C(NC1(=CC=CC=C1))CN(CC)CC","CCN(C/C(/O)=N\C1C=CC=CC=1)CC","InChI=1S/C12H18N2O/c1-3-14(4-2)10-12(15)13-11-8-6-5-7-9-11/h5-9H,3-4,10H2,1-2H3,(H,13,15)","BZOYWRSQDKFTPI-UHFFFAOYSA-N","?","20","potentiometric","a/thermodynamic","?","basic",8.0
"16407","O=C(C1(=CC=CC=C1))CC2(N(C(CCC2)CC(O)C3(=CC=CC=C3))C)","CN1C(CC(O)C2C=CC=CC=2)CCCC1C=C(O)C1C=CC=CC=1","InChI=1S/C22H27NO2/c1-23-19(15-21(24)17-9-4-2-5-10-17)13-8-14-20(23)16-22(25)18-11-6-3-7-12-18/h2-7,9-12,15,19-20,22,24-25H,8,13-14,16H2,1H3","RBXIVSWPIXHVBO-UHFFFAOYSA-N","?",,"potentiometric","a/apparent","NH%+&","basic",8.0
"17465","OC(N)C(=C)C","CC(=C)C(N)O","InChI=1S/C4H9NO/c1-3(2)4(5)6/h4,6H,1,5H2,2H3","KNTQPWHSPXKMNT-UHFFFAOYSA-N","?","25","spectrophotometric","a1/apparent","R(NH2)C-OH","basic",8.0
"10376","N#CCCNC(C)C","CC(C)NCCC#N","InChI=1S/C6H12N2/c1-6(2)8-5-3-4-7/h6,8H,3,5H2,1-2H3","XBAXAJAODIQLCI-UHFFFAOYSA-N","?","29","potentiometric","a/apparent","?","basic",8.0
"14876","O=C(NC1(=C(C=CC=C1C)C))CNCCC","CCCN=CC(O)NC1C(C)=CC=CC=1C","InChI=1S/C13H20N2O/c1-4-8-14-9-12(16)15-13-10(2)6-5-7-11(13)3/h5-7,9,12,15-16H,4,8H2,1-3H3","JPXOAFSIIPJPEX-UHFFFAOYSA-N","?",,,"a/thermodynamic","?","basic",8.01
"16235","O=C(NC1(=CC(=CC(=C1)C)C))CN(CC)CC","CC1=CC(=CC(C)=C1)/N=C(/O)\CN(CC)CC","InChI=1S/C14H22N2O/c1-5-16(6-2)10-14(17)15-13-8-11(3)7-12(4)9-13/h7-9H,5-6,10H2,1-4H3,(H,15,17)","JEGVQGHWBTYVRY-UHFFFAOYSA-N","?",,,"a/thermodynamic","?","basic",8.01
"10670","O=C(N)C=C(O)C1(=CN=CC=C1)","NC(=O)C=C(O)C1C=CC=NC=1","InChI=1S/C8H8N2O2/c9-8(12)4-7(11)6-2-1-3-10-5-6/h1-5,11H,(H2,9,12)","RVQOCWRJMWYYHO-UHFFFAOYSA-N","?","25","spectrophotometric","a1/apparent","?","basic",8.01
"13675","OC1(=C(C=CC=C1CC)CN(C)C)","CCC1=CC=CC(CN(C)C)=C1O","InChI=1S/C11H17NO/c1-4-9-6-5-7-10(11(9)13)8-12(2)3/h5-7,13H,4,8H2,1-3H3","OIWRDAMPXJWKIF-UHFFFAOYSA-N","?","25","potentiometric","a1/apparent","?","basic",8.02
"13606","N(C1(=CC=CC=C1))(C(C)(C)C)CC","CCN(C1C=CC=CC=1)C(C)(C)C","InChI=1S/C12H19N/c1-5-13(12(2,3)4)11-9-7-6-8-10-11/h6-10H,5H2,1-4H3","RWYWAMVJPDMKOE-UHFFFAOYSA-N","?","25",,"a/apparent","?","basic",8.02
"10101","N1(=C(NC=C1)CCC)","CCCC1NC=CN=1","InChI=1S/C6H10N2/c1-2-3-6-7-4-5-8-6/h4-5H,2-3H2,1H3,(H,7,8)","MKBBSFGKFMQPPC-UHFFFAOYSA-N","?","24.9","potentiometric","a1/apparent","?","basic",8.02
"16934","O2(C1(=C(OCC)C=CC5(=C1C34(C2C(O)C=CC3C(N(C)CC4)C5))))","CCOC1C=CC2CC3C4C=CC(O)C5OC=1C=2C45CCN3C","InChI=1S/C19H23NO3/c1-3-22-15-7-4-11-10-13-12-5-6-14(21)18-19(12,8-9-20(13)2)16(11)17(15)23-18/h4-7,12-14,18,21H,3,8-10H2,1-2H3","OGDVEMNWJVYAJL-UHFFFAOYSA-N","?","19","mean from 2","b1/apparent","?","basic",8.03
"15885","O(C(C1(=CC=CC=C1))C2(=CC=CC=C2))CCN3(CCCCC3)","C(CN1CCCCC1)OC(C1C=CC=CC=1)C1C=CC=CC=1","InChI=1S/C20H25NO/c1-4-10-18(11-5-1)20(19-12-6-2-7-13-19)22-17-16-21-14-8-3-9-15-21/h1-2,4-7,10-13,20H,3,8-9,14-17H2","ZVWXNGJQZCPYLK-UHFFFAOYSA-N","?",,"potentiometric","b/apparent","?","basic",8.03
"10770","S(C(=N)C1(=CC=CC=C1))C(C)C","CC(C)SC(=N)C1C=CC=CC=1","InChI=1S/C10H13NS/c1-8(2)12-10(11)9-6-4-3-5-7-9/h3-8,11H,1-2H3","YRLYOMQUYNMAMK-UHFFFAOYSA-N","?","25",,"b/apparent","?","basic",8.04
"17160","N=1(C=3(C(C=C2(C=1C=CC=C2))=CC=C(C=3)N))","NC1C=C2N=C3C=CC=CC3=CC2=CC=1","InChI=1S/C13H10N2/c14-11-6-5-10-7-9-3-1-2-4-12(9)15-13(10)8-11/h1-8H,14H2","GHCKERHPOQWERJ-UHFFFAOYSA-N","?","20","spectrophotometric","a/apparent","?","basic",8.04
"16239","O=C(NC1(=C(C=CC=C1C)C))CNCCCC","CCCCN=CC(O)NC1C(C)=CC=CC=1C","InChI=1S/C14H22N2O/c1-4-5-9-15-10-13(17)16-14-11(2)7-6-8-12(14)3/h6-8,10,13,16-17H,4-5,9H2,1-3H3","WBGUHISJIPOHOA-UHFFFAOYSA-N","?",,,"a/thermodynamic","?","basic",8.04
"15629","O=[N+]([O-])C1(=CC=C(NC(=O)CN(CC)CC)C=C1)","CCN(C/C(/O)=N\C1C=CC(=CC=1)[N+]([O-])=O)CC","InChI=1S/C12H17N3O3/c1-3-14(4-2)9-12(16)13-10-5-7-11(8-6-10)15(17)18/h5-8H,3-4,9H2,1-2H3,(H,13,16)","OKDWEXMXXCTNSG-UHFFFAOYSA-N","?","20","potentiometric","a/apparent","?","basic",8.05
"17803","N1(=C(NC=C1)CC)","CCC1NC=CN=1","InChI=1S/C5H8N2/c1-2-5-6-3-4-7-5/h3-4H,2H2,1H3,(H,6,7)","PQAMFDRRWURCFQ-UHFFFAOYSA-N","?","30","potentiometric","b1/apparent","=NH2(1+)","basic",8.05
"14465","O=C(C1(=CC=C(O)C=C1))CN","N=CC(O)C1=CC=C(O)C=C1","InChI=1S/C8H9NO2/c9-5-8(11)6-1-3-7(10)4-2-6/h1-5,8-11H","IDALIBLPHFLZLG-UHFFFAOYSA-N","?",,"potentiometric","b/apparent","?","basic",8.05
"14649","O=C(NC1(=C(C=CC=C1C)C))CNCC","CCN=CC(O)NC1C(C)=CC=CC=1C","InChI=1S/C12H18N2O/c1-4-13-8-11(15)14-12-9(2)6-5-7-10(12)3/h5-8,11,14-15H,4H2,1-3H3","XFGDDYZPGYMUOL-UHFFFAOYSA-N","?",,,"a/thermodynamic","?","basic",8.06
"14875","O=C(NCC1(=CC=CC=C1))CN(CC)CC","CCN(C/C(/O)=N\CC1C=CC=CC=1)CC","InChI=1S/C13H20N2O/c1-3-15(4-2)11-13(16)14-10-12-8-6-5-7-9-12/h5-9H,3-4,10-11H2,1-2H3,(H,14,16)","CUMDOJBQHHXABV-UHFFFAOYSA-N","?","25","potentiometric","a1/apparent","NH","basic",8.07
"16896","N#CC(C1(=CC=CC=C1))(C2(=CC=CC=C2))CCN3(CCCCC3)","N#CC(CCN1CCCCC1)(C1C=CC=CC=1)C1C=CC=CC=1","InChI=1S/C21H24N2/c22-18-21(19-10-4-1-5-11-19,20-12-6-2-7-13-20)14-17-23-15-8-3-9-16-23/h1-2,4-7,10-13H,3,8-9,14-17H2","VXPUAJALRVCLNP-UHFFFAOYSA-N","?","25","potentiometric","a/apparent","NH+","basic",8.07
"16834","O=C(C(C1(=CC=CC=C1))(C2(=CC=CC=C2))C(CN(C)C)C)CC","CC=C(O)C(C(C)CN(C)C)(C1C=CC=CC=1)C1C=CC=CC=1","InChI=1S/C21H27NO/c1-5-20(23)21(17(2)16-22(3)4,18-12-8-6-9-13-18)19-14-10-7-11-15-19/h5-15,17,23H,16H2,1-4H3","KVWLTTWNTWTQHZ-UHFFFAOYSA-N","?","20","potentiometric","a/apparent","?","basic",8.07
"15150","[Si](OC2(CN(CC1(=CC=CC=C1))C2))(C)(C)C","C[Si](C)(C)OC1CN(C1)CC1C=CC=CC=1","InChI=1S/C13H21NOSi/c1-16(2,3)15-13-10-14(11-13)9-12-7-5-4-6-8-12/h4-8,13H,9-11H2,1-3H3","GGTBVKOJUABMSG-UHFFFAOYSA-N","?","20","potentiometric","a1/apparent","?","basic",8.08
"15899","O=C4(C1(OC=5(C(O)=CC=C3(C=5(C12(C(C(N(C)CC2)C3)CC4)))))(C))","CC12OC3C4=C(CC5C(CC=C1O)C24CCN5C)C=CC=3O","InChI=1S/C18H21NO3/c1-17-14(21)6-4-11-12-9-10-3-5-13(20)16(22-17)15(10)18(11,17)7-8-19(12)2/h3,5-6,11-12,20-21H,4,7-9H2,1-2H3","SAIXSFOUJRVHIO-UHFFFAOYSA-N","?","20","potentiometric","a/apparent","?","basic",8.08
"10654","[Br]C1(=CC(N=CN(C)C)=CC=C1)","CN(C)C=NC1C=C(Br)C=CC=1","InChI=1S/C9H11BrN2/c1-12(2)7-11-9-5-3-4-8(10)6-9/h3-7H,1-2H3","AHXJOPPQNFICNX-UHFFFAOYSA-N","?","25","potentiometric","a1/apparent","N=C-H","basic",8.08
"10102","N1(=C(N(CC)C=C1)C)","CCN1C=CN=C1C","InChI=1S/C6H10N2/c1-3-8-5-4-7-6(8)2/h4-5H,3H2,1-2H3","NYYVCPHBKQYINK-UHFFFAOYSA-N","?","25","potentiometric","a1/apparent","N(1+)-H","basic",8.09
"10769","S(C(=N)C1(=CC=CC=C1))CCC","CCCSC(=N)C1C=CC=CC=1","InChI=1S/C10H13NS/c1-2-8-12-10(11)9-6-4-3-5-7-9/h3-7,11H,2,8H2,1H3","XSFBTEQUZBQOHU-UHFFFAOYSA-N","?","25",,"b/apparent","?","basic",8.1
"13386","O2(C(NC1(OCCCC1))CCCC2)","C1CCCOC1NC1CCCCO1","InChI=1S/C10H19NO2/c1-3-7-12-9(5-1)11-10-6-2-4-8-13-10/h9-11H,1-8H2","KVMKZWBVTCGHHS-UHFFFAOYSA-N","?","22",,"b/apparent","?","basic",8.1
"15633","O=C(OC(CN(CC)CC)(CC=C)C)CC(C)C","CC(C)C=C(O)OC(C)(CN(CC)CC)CC=C","InChI=1S/C15H29NO2/c1-7-10-15(6,12-16(8-2)9-3)18-14(17)11-13(4)5/h7,11,13,17H,1,8-10,12H2,2-6H3","MVHIMVGMFFPPOQ-UHFFFAOYSA-N","?","25","potentiometric","a1/apparent","?","basic",8.1
"15631","OC(CN(CC(O)C)CCCCCCCC)CC","CC(O)CN(CC(O)CC)CCCCCCCC","InChI=1S/C15H33NO2/c1-4-6-7-8-9-10-11-16(12-14(3)17)13-15(18)5-2/h14-15,17-18H,4-13H2,1-3H3","GINSEKTWQFIBNF-UHFFFAOYSA-N","?","20","potentiometric","a1/apparent","-NH3%+&","basic",8.1
"14798","O=C([O-])C6(OC(OC4(=C1(OC5(C(O)C=CC3(C25(C1=C(CC3(N(C)CC2))C=C4))))))C(O)C(C6O)O)","CN1CCC23C4OC5=C2C(CC1C3C=CC4O)=CC=C5OC1OC(C(O)C(O)C1O)=C(O)O","InChI=1S/C23H27NO9/c1-24-7-6-23-10-3-4-12(25)20(23)32-18-13(5-2-9(14(18)23)8-11(10)24)31-22-17(28)15(26)16(27)19(33-22)21(29)30/h2-5,10-12,15-17,20,22,25-30H,6-8H2,1H3","SXZLPDVUFWTAII-UHFFFAOYSA-N","?",,"potentiometric","a2/apparent","?","basic",8.1
"13046","O=CC=1(OC(CN)=CC=1)","NCC1=CC=C(C=O)O1","InChI=1S/C6H7NO2/c7-3-5-1-2-6(4-8)9-5/h1-2,4H,3,7H2","NUINAHPIQAGHEB-UHFFFAOYSA-N","?",,"spectrophotometric","a/apparent","?","basic",8.1
"14033","N=2(C1(=C(N)C=CC=C1NC=2C))","CC1NC2=CC=CC(N)=C2N=1","InChI=1S/C8H9N3/c1-5-10-7-4-2-3-6(9)8(7)11-5/h2-4H,9H2,1H3,(H,10,11)","USVXDODAPOBXCF-UHFFFAOYSA-N","?",,"potentiometric","b1/apparent","?","basic",8.1
"10657","[Br]C1(=CC=C(N=CN(C)C)C=C1)","CN(C)C=NC1C=CC(Br)=CC=1","InChI=1S/C9H11BrN2/c1-12(2)7-11-9-5-3-8(10)4-6-9/h3-7H,1-2H3","OJKJZQJONGTMRZ-UHFFFAOYSA-N","?","25","potentiometric","a1/apparent","N=C-H","basic",8.1
"12168","S(C1(CCCCC1))CCN(CC)CC","CCN(CCSC1CCCCC1)CC","InChI=1S/C12H25NS/c1-3-13(4-2)10-11-14-12-8-6-5-7-9-12/h12H,3-11H2,1-2H3","HKUXKPFFMPFWBM-UHFFFAOYSA-N","?","17","potentiometric","b/apparent","?","basic",8.11
"15032","N=1(C=3(C(C=C2(C=1C=CC(=C2)N))=CC=C(C=3)N))","NC1=CC2=CC3=CC=C(N)C=C3N=C2C=C1","InChI=1S/C13H11N3/c14-10-3-4-12-9(6-10)5-8-1-2-11(15)7-13(8)16-12/h1-7H,14-15H2","AXNLREBQOMGJMQ-UHFFFAOYSA-N","?","20","spectrophotometric","a/apparent","?","basic",8.11
"15604","O=C(NC1(=C(C=CC=C1C)C))C(N(CC)CC)C","CC1C=CC=C(C)C=1/N=C(/O)\C(C)N(CC)CC","InChI=1S/C15H24N2O/c1-6-17(7-2)13(5)15(18)16-14-11(3)9-8-10-12(14)4/h8-10,13H,6-7H2,1-5H3,(H,16,18)","MAODNVTZUXOBNL-UHFFFAOYSA-N","?",,,"a/thermodynamic","?","basic",8.11
"17692","ClC(CN(C)C)C","CC(Cl)CN(C)C","InChI=1S/C5H12ClN/c1-5(6)4-7(2)3/h5H,4H2,1-3H3","GYXWNSDLDXGMGU-UHFFFAOYSA-N","?","20","potentiometric","a1/apparent","?","basic",8.12
"14358","O=C(NC1(=CC=CC=C1))CN","N=CC(O)NC1C=CC=CC=1","InChI=1S/C8H10N2O/c9-6-8(11)10-7-4-2-1-3-5-7/h1-6,8-11H","GNFUTPYVARTHSZ-UHFFFAOYSA-N","?","25","mean from 2","a1/apparent","?","basic",8.12
"10988","N=1(C(=NC2(=CC=CC=C2(C=1N)))N)","NC1N=C(N)C2=CC=CC=C2N=1","InChI=1S/C8H8N4/c9-7-5-3-1-2-4-6(5)11-8(10)12-7/h1-4H,(H4,9,10,11,12)","XELRMPRLCPFTBH-UHFFFAOYSA-N","?","25","spectrophotometric","b1/apparent","?","basic",8.12
"11589","O(CCC1(=NC(C)=CN1))C","CC1=CNC(CCOC)=N1","InChI=1S/C7H12N2O/c1-6-5-8-7(9-6)3-4-10-2/h5H,3-4H2,1-2H3,(H,8,9)","DOJNTOBPZZRIQV-UHFFFAOYSA-N","?","25","potentiometric","a1/apparent","?","basic",8.13
"17799","N1(C(NCCC1)C)","CC1NCCCN1","InChI=1S/C5H12N2/c1-5-6-3-2-4-7-5/h5-7H,2-4H2,1H3","CQMZYAFVTNOAST-UHFFFAOYSA-N","?, ?","25",,"b1/apparent","?, ?","basic",8.14
"16935","O2(C1(=C(OC)C=CC5(=C1C34(C2C(OC)=CC=C3C(N(C)CC4)C5))))","CN1CCC23C4OC5C2=C(CC1C3=CC=C4OC)C=CC=5OC","InChI=1S/C19H21NO3/c1-20-9-8-19-12-5-7-15(22-3)18(19)23-17-14(21-2)6-4-11(16(17)19)10-13(12)20/h4-7,13,18H,8-10H2,1-3H3","FQXXSQDCDRQNQE-UHFFFAOYSA-N","?","20","potentiometric","a1/apparent","?","basic",8.15
"10068","NC1(C(N)CCCC1)","NC1CCCCC1N","InChI=1S/C6H14N2/c7-5-3-1-2-4-6(5)8/h5-6H,1-4,7-8H2","SSJXIUAHEKJCMH-UHFFFAOYSA-N","?, ?, ?, ?","20","mean from 2","a1/apparent","?, ?, ?, ?","basic",8.1625
"15748","[Si](OC2(CN(CC1(=CC=C(OC)C=C1))C2))(C)(C)C","COC1=CC=C(CN2CC(C2)O[Si](C)(C)C)C=C1","InChI=1S/C14H23NO2Si/c1-16-13-7-5-12(6-8-13)9-15-10-14(11-15)17-18(2,3)4/h5-8,14H,9-11H2,1-4H3","APKBDSYUSFVEMZ-UHFFFAOYSA-N","?","20","potentiometric","a1/apparent","?","basic",8.17