"Molecule name","OriginalSmiles","Canonical_QSARr","InChI_Code_QSARr","InChI Key_QSARr","Salt_Solvent (Concatenate)","temp","method","type","group","basicOrAcidic","pKa"
"15701","O(C1(=NC=NC=2(C1=CC(OC)=C(C=2OC)OC)))C","COC1C=C2C(N=CN=C2OC)=C(OC)C=1OC","InChI=1S/C12H14N2O4/c1-15-8-5-7-9(11(17-3)10(8)16-2)13-6-14-12(7)18-4/h5-6H,1-4H3","OBDYSGOCSNRPCY-UHFFFAOYSA-N","?","25","spectrophotometric","a1/thermodynamic","?","basic",3.34
"15695","N(C1(=CC=C(C)C=C1))CCNC2(=CC=C(C)C=C2)","CC1C=CC(=CC=1)NCCNC1C=CC(C)=CC=1","InChI=1S/C16H20N2/c1-13-3-7-15(8-4-13)17-11-12-18-16-9-5-14(2)6-10-16/h3-10,17-18H,11-12H2,1-2H3","CSFJHJLPCWAQHC-UHFFFAOYSA-N","?, ?",,"potentiometric","a2/apparent","?, ?","basic",3.35
"14585","ON=C(N)C1(=C(N)C=CC=C1)","NC1C=CC=CC=1C(N)N=O","InChI=1S/C7H9N3O/c8-6-4-2-1-3-5(6)7(9)10-11/h1-4,7H,8-9H2","OSEODLQHBXBGDE-UHFFFAOYSA-N","?, ?","20","potentiometric","a2/apparent","?, ?","basic",3.35
"15573","OC1(=C(C=CC=C1)C=NC3(=NC=2(NC=NC=2C=N3)))","OC1C=CC=CC=1C=NC1=NC2NC=NC=2C=N1","InChI=1S/C12H9N5O/c18-10-4-2-1-3-8(10)5-13-12-14-6-9-11(17-12)16-7-15-9/h1-7,18H,(H,14,15,16,17)","LNVULFVRYHLUHN-UHFFFAOYSA-N","?","25","spectrophotometric","a1/apparent","NH","basic",3.38
"11656","ClC1(=C(SC)C=CC(=C1)N)","CSC1C=CC(N)=CC=1Cl","InChI=1S/C7H8ClNS/c1-10-7-3-2-5(9)4-6(7)8/h2-4H,9H2,1H3","AIUFATMGALKMOI-UHFFFAOYSA-N","?","30","spectrophotometric","a1/apparent","?","basic",3.38
"16129","O(C2(=CC=C(N=NC=1(C(=NNC=1N)N))C=C2))C","COC1C=CC(=CC=1)N=NC1=C(N)NN=C1N","InChI=1S/C10H12N6O/c1-17-7-4-2-6(3-5-7)13-14-8-9(11)15-16-10(8)12/h2-5H,1H3,(H5,11,12,15,16)","QNRNTYHAOBVOKW-UHFFFAOYSA-N","?","25","spectrophotometric","a1/apparent","?","basic",3.39
"15731","O=C(O)C2(=CC=C(N=NC=1(C(=NNC=1N)N))C=C2)","NC1=NNC(N)=C1N=NC1C=CC(=CC=1)C(O)=O","InChI=1S/C10H10N6O2/c11-8-7(9(12)16-15-8)14-13-6-3-1-5(2-4-6)10(17)18/h1-4H,(H,17,18)(H5,11,12,15,16)","NCWCSLXGDWIAIT-UHFFFAOYSA-N","?","25","spectrophotometric","a1/apparent","?","basic",3.4
"11144","ClC=1(C=2(C(C(N)=CC=1)=CC=CC=2))","NC1=CC=C(Cl)C2=CC=CC=C21","InChI=1S/C10H8ClN/c11-9-5-6-10(12)8-4-2-1-3-7(8)9/h1-6H,12H2","DEPDZGNUVOAZCW-UHFFFAOYSA-N","?","25","mean from 2","a1/apparent","RNH3(+)","basic",3.4
"16566","S(=O)(=O)(N1(C(=NC3(=C1C=C(C(C2(=C(F)C=CC(=C2)F))=CC(=O)N)C=C3))N))C(C)C","CC(C)S(=O)(=O)N1C2C=C(C=CC=2N=C1N)C(=CC(N)=O)C1C=C(F)C=CC=1F","InChI=1S/C19H18F2N4O3S/c1-10(2)29(27,28)25-17-7-11(3-6-16(17)24-19(25)23)13(9-18(22)26)14-8-12(20)4-5-15(14)21/h3-10H,1-2H3,(H2,22,26)(H2,23,24)","NVLFXCCZDSTLDZ-UHFFFAOYSA-N","?","25","potentiometric","a1/apparent","?","basic",3.4
"13065","O=CC1(=NC=CC=C1O)","OC1=CC=CN=C1C=O","InChI=1S/C6H5NO2/c8-4-5-6(9)2-1-3-7-5/h1-4,9H","ICDSWZBXIZCMHR-UHFFFAOYSA-N","?","20","spectrophotometric","a1/apparent","H+","basic",3.4
"11149","S(C=1(N=CC2(=CC=CC=C2(C=1))))C","CSC1=CC2=CC=CC=C2C=N1","InChI=1S/C10H9NS/c1-12-10-6-8-4-2-3-5-9(8)7-11-10/h2-7H,1H3","SNRLRUIFMJGALU-UHFFFAOYSA-N","?","20","spectrophotometric","a/apparent","NH%+&","basic",3.41
"15484","S(=O)(=O)(N1(C(=NC3(=C1C=C(C(C2(=CC(F)=CC=C2))=CC(=O)N)C=C3))N))C(C)C","CC(C)S(=O)(=O)N1C2C=C(C=CC=2N=C1N)C(=CC(N)=O)C1=CC(F)=CC=C1","InChI=1S/C19H19FN4O3S/c1-11(2)28(26,27)24-17-9-13(6-7-16(17)23-19(24)22)15(10-18(21)25)12-4-3-5-14(20)8-12/h3-11H,1-2H3,(H2,21,25)(H2,22,23)","IFGBUZJTYCAGJT-UHFFFAOYSA-N","?","25","potentiometric","a1/apparent","?","basic",3.41
"10226","[Br]C1(=CC(N)=CC=C1)","NC1C=C(Br)C=CC=1","InChI=1S/C6H6BrN/c7-5-2-1-3-6(8)4-5/h1-4H,8H2","DHYHYLGCQVVLOQ-UHFFFAOYSA-N","?","24","mean from 4","apparent","?","basic",3.41
"13850","OC=2(C1(=NC=NC=C1C=CC=2))","OC1=CC=CC2=CN=CN=C21","InChI=1S/C8H6N2O/c11-7-3-1-2-6-4-9-5-10-8(6)7/h1-5,11H","LNNRQIKKDKDFRV-UHFFFAOYSA-N","?","20","potentiometric","a1/apparent","?","basic",3.41
"11748","OCNC1(=CC=C(C)C=C1)","CC1=CC=C(C=C1)NCO","InChI=1S/C8H11NO/c1-7-2-4-8(5-3-7)9-6-10/h2-5,9-10H,6H2,1H3","REMBCRMECYJRQV-UHFFFAOYSA-N","?","25","spectrophotometric","a1/thermodynamic","?","basic",3.42
"10901","O(C1(=NC(=NC(=N1)N)N))CC=C","C=CCOC1N=C(N)N=C(N)N=1","InChI=1S/C6H9N5O/c1-2-3-12-6-10-4(7)9-5(8)11-6/h2H,1,3H2,(H4,7,8,9,10,11)","UGQNGGGQIGXDSR-UHFFFAOYSA-N","?","25","potentiometric","b/apparent","?","basic",3.43
"10793","O(CC1(=NC(=CC=C1)COC))C","COCC1C=CC=C(COC)N=1","InChI=1S/C9H13NO2/c1-11-6-8-4-3-5-9(10-8)7-12-2/h3-5H,6-7H2,1-2H3","ABKLYPKKJFLPGU-UHFFFAOYSA-N","?","25","mean from 2","a1/apparent","NH(+)","basic",3.43
"11802","S(=O)(=O)([O-])C1(=CC=NC=C1)","OS(=O)(=O)C1C=CN=CC=1","InChI=1S/C5H5NO3S/c7-10(8,9)5-1-3-6-4-2-5/h1-4H,(H,7,8,9)","PTWLOSARXIJRRJ-UHFFFAOYSA-N","?","25","spectrophotometric","a2/apparent","?","basic",3.44
"11657","IC1(=C(SC)C=CC(=C1)N)","CSC1C=CC(N)=CC=1I","InChI=1S/C7H8INS/c1-10-7-3-2-5(9)4-6(7)8/h2-4H,9H2,1H3","ISRULUJNENOMCW-UHFFFAOYSA-N","?","30","spectrophotometric","a1/apparent","?","basic",3.44
"14287","O=C(O)CC=1(N=NN(N=1)CC)","CCN1N=NC(C=C(O)O)=N1","InChI=1S/C5H8N4O2/c1-2-9-7-4(6-8-9)3-5(10)11/h3,10-11H,2H2,1H3","IWGVHLAJWNCETJ-UHFFFAOYSA-N","?","25","potentiometric","a1/apparent","COOH","basic",3.45
"17789","N1(=NC=CC=C1C)","CC1=CC=CN=N1","InChI=1S/C5H6N2/c1-5-3-2-4-6-7-5/h2-4H,1H3","MXDRPNGTQDRKQM-UHFFFAOYSA-N","?","16.5","potentiometric","a1/apparent","?","basic",3.46
"13324","O=[N+]([O-])C=2(C=1(C(=CN=CC=1)C=CC=2))","[O-][N+](=O)C1=CC=CC2=CN=CC=C21","InChI=1S/C9H6N2O2/c12-11(13)9-3-1-2-7-6-10-5-4-8(7)9/h1-6H","PYGMPFQCCWBTJQ-UHFFFAOYSA-N","?","25","spectrophotometric","a1/thermodynamic","N(+)-H","basic",3.46
"11985","N1(C2(=C(NCC1)C=CC=C2))","C1CNC2C=CC=CC=2N1","InChI=1S/C8H10N2/c1-2-4-8-7(3-1)9-5-6-10-8/h1-4,9-10H,5-6H2","HORKYAIEVBUXGM-UHFFFAOYSA-N","?, ?","25","potentiometric","a2/thermodynamic","?, ?","basic",3.4749999999999996
"15011","O1(C(=NC=2(C=CC=CC=2(C1)))C3(=CC=CC=C3))","C1OC(=NC2C=CC=CC=21)C1C=CC=CC=1","InChI=1S/C14H11NO/c1-2-6-11(7-3-1)14-15-13-9-5-4-8-12(13)10-16-14/h1-9H,10H2","PQEGKTSNRSHJHM-UHFFFAOYSA-N","?","25.05","spectrophotometric","a1/apparent","NH%+&","basic",3.48
"15114","OC2(=CC=C(N=NC=1(C(=NNC=1N)N))C=C2)","NC1=NNC(N)=C1N=NC1C=CC(O)=CC=1","InChI=1S/C9H10N6O/c10-8-7(9(11)15-14-8)13-12-5-1-3-6(16)4-2-5/h1-4,16H,(H5,10,11,14,15)","AYZRKFOEZQBUEA-UHFFFAOYSA-N","?","25","spectrophotometric","a1/apparent","?","basic",3.48
"11500","N1(=NC=CC=C1CCCC)","CCCCC1=CC=CN=N1","InChI=1S/C8H12N2/c1-2-3-5-8-6-4-7-9-10-8/h4,6-7H,2-3,5H2,1H3","XHQORXRKXJXPBL-UHFFFAOYSA-N","?","18","potentiometric","a/apparent","?","basic",3.49
"12361","S2(C1(=NC(=NC(=C1N=C2)N)CCCC))","CCCCC1N=C2SC=NC2=C(N)N=1","InChI=1S/C9H12N4S/c1-2-3-4-6-12-8(10)7-9(13-6)14-5-11-7/h5H,2-4H2,1H3,(H2,10,12,13)","JFRKXOHXINEMCO-UHFFFAOYSA-N","?",,"potentiometric","a/apparent","?","basic",3.49
"11575","OC=1(N(N=C(C=1CC)C)C)","CC1=NN(C)C(O)=C1CC","InChI=1S/C7H12N2O/c1-4-6-5(2)8-9(3)7(6)10/h10H,4H2,1-3H3","CDIOKCGSAMQTGI-UHFFFAOYSA-N","?",,"potentiometric","b/apparent","?","basic",3.5
"15112","OC2(=C(N=NC=1(C(=NNC=1N)N))C=CC=C2)","NC1=NNC(N)=C1N=NC1C=CC=CC=1O","InChI=1S/C9H10N6O/c10-8-7(9(11)15-14-8)13-12-5-3-1-2-4-6(5)16/h1-4,16H,(H5,10,11,14,15)","NMUKEYNAORQEIT-UHFFFAOYSA-N","?","25","spectrophotometric","a1/apparent","?","basic",3.51
"14350","O=C(N(C1(=CN=CC=C1))C)C","CN(C(=C)O)C1C=CC=NC=1","InChI=1S/C8H10N2O/c1-7(11)10(2)8-4-3-5-9-6-8/h3-6,11H,1H2,2H3","LIWILVNWWFZRJR-UHFFFAOYSA-N","?",,"potentiometric","a/apparent","?","basic",3.52
"16740","O3(C(N2(C1(=NC=NC(=C1N=C2)N)))C(O)C(C3CO)O)","NC1N=CN=C2C=1N=CN2C1OC(CO)C(O)C1O","InChI=1S/C10H13N5O4/c11-8-5-9(13-2-12-8)15(3-14-5)10-7(18)6(17)4(1-16)19-10/h2-4,6-7,10,16-18H,1H2,(H2,11,12,13)","OIRDTQYFTABQOQ-UHFFFAOYSA-N","?","22","mean from 7","a1/apparent","?","basic",3.53
"17189","FC3(=C1(C(C=2(C=CC(=CC=2(C1))N))=CC=C3))","NC1=CC2CC3=C(F)C=CC=C3C=2C=C1","InChI=1S/C13H10FN/c14-13-3-1-2-11-10-5-4-9(15)6-8(10)7-12(11)13/h1-6H,7,15H2","IVTOGTCHWXYMEG-UHFFFAOYSA-N","?","25","spectrophotometric","a1/apparent","?","basic",3.54
"11671","[Br]C1(=CC(=C(N)C(=C1)C)C)","CC1=CC(Br)=CC(C)=C1N","InChI=1S/C8H10BrN/c1-5-3-7(9)4-6(2)8(5)10/h3-4H,10H2,1-2H3","QGLAYJCJLHNIGJ-UHFFFAOYSA-N","?","25","spectrophotometric","a/apparent","?","basic",3.54
"13916","[Br]C=1(C=2(C(C=NC=1)=CC=CC=2))","BrC1=CN=CC2=CC=CC=C21","InChI=1S/C9H6BrN/c10-9-6-11-5-7-3-1-2-4-8(7)9/h1-6H","SCRBSGZBTHKAHU-UHFFFAOYSA-N","?","25","spectrophotometric","a1/thermodynamic","N(+)-H","basic",3.54
"17905","N1(=C(N=CC=C1)N)","NC1N=CC=CN=1","InChI=1S/C4H5N3/c5-4-6-2-1-3-7-4/h1-3H,(H2,5,6,7)","LJXQPZWIHJMPQQ-UHFFFAOYSA-N","?","20","mean from 2","a1/apparent","NH(1+)","basic",3.55
"14468","O=C(OC)C1(=CC(N)=CC=C1)","COC(=O)C1C=CC=C(N)C=1","InChI=1S/C8H9NO2/c1-11-8(10)6-3-2-4-7(9)5-6/h2-5H,9H2,1H3","VZDNXXPBYLGWOS-UHFFFAOYSA-N","?","25","potentiometric","a/thermodynamic","?","basic",3.55
"10087","N=1(N(C=C(C=1C)C)C)","CC1=NN(C)C=C1C","InChI=1S/C6H10N2/c1-5-4-8(3)7-6(5)2/h4H,1-3H3","GHGZGDGWFWIAQM-UHFFFAOYSA-N","?","25","potentiometric","a1/apparent","?","basic",3.56
"14030","N=2(C=1(C(=C(N)C=CC=1)C=NC=2))","NC1C=CC=C2N=CN=CC2=1","InChI=1S/C8H7N3/c9-7-2-1-3-8-6(7)4-10-5-11-8/h1-5H,9H2","KWHDQPVGKVPPPS-UHFFFAOYSA-N","?","20","potentiometric","a/apparent","?","basic",3.57
"15165","O=[N+]([O-])C2(=CC=1(N=C(CC(=NC=1C=C2)C)C))","CC1CC(C)=NC2C=CC(=CC=2N=1)[N+]([O-])=O","InChI=1S/C11H11N3O2/c1-7-5-8(2)13-11-6-9(14(15)16)3-4-10(11)12-7/h3-4,6H,5H2,1-2H3","XGWOKQYGEIQKMO-UHFFFAOYSA-N","?, ?","25","conductometric","a2/apparent","?, ?","basic",3.575
"10082","N=1(N(C(C)=C(C=1)C)C)","CC1=C(C)C=NN1C","InChI=1S/C6H10N2/c1-5-4-7-8(3)6(5)2/h4H,1-3H3","SUHBKHNLQCODJL-UHFFFAOYSA-N","?","25","potentiometric","a1/apparent","?","basic",3.58
"13037","[Br]C1(=CC(=C(N)C=C1)C)","CC1C=C(Br)C=CC=1N","InChI=1S/C7H8BrN/c1-5-4-6(8)2-3-7(5)9/h2-4H,9H2,1H3","PCHYYOCUCGCSBU-UHFFFAOYSA-N","?","25","spectrophotometric","a/apparent","?","basic",3.58
"16803","ClC3(=CC=2(N(C1(=C(C=CC=C1)SC=2C=C3))CCC[NH+]4(CCN(CCO)CC4)))","OCCN1CCN(CCCN2C3=CC=CC=C3SC3=CC=C(Cl)C=C23)CC1","InChI=1S/C21H26ClN3OS/c22-17-6-7-21-19(16-17)25(18-4-1-2-5-20(18)27-21)9-3-8-23-10-12-24(13-11-23)14-15-26/h1-2,4-7,16,26H,3,8-15H2","RGCVKNLCSQQDEP-UHFFFAOYSA-N","?","25","potentiometric","a1/apparent","?","basic",3.59
"10223","ClC1(=CC(N)=CC=C1)","NC1C=C(Cl)C=CC=1","InChI=1S/C6H6ClN/c7-5-2-1-3-6(8)4-5/h1-4H,8H2","PNPCRKVUWYDDST-UHFFFAOYSA-N","?","24","mean from 10","a1/thermodynamic","NH3(+)","basic",3.59
"12884","N1(=NC=CC=C1CCC)","CCCC1=CC=CN=N1","InChI=1S/C7H10N2/c1-2-4-7-5-3-6-8-9-7/h3,5-6H,2,4H2,1H3","DQFWXEPAERVANT-UHFFFAOYSA-N","?","16.5","potentiometric","a/apparent","?","basic",3.59
"10160","O=C(N1(C=NC=C1))C","C=C(O)N1C=NC=C1","InChI=1S/C5H6N2O/c1-5(8)7-3-2-6-4-7/h2-4,8H,1H2","YUFVOKKDUKCPKF-UHFFFAOYSA-N","?","25",,"b1/thermodynamic","?","basic",3.6
"12855","N1(=C(N=C(C)N=C1C)N)","CC1=NC(N)=NC(C)=N1","InChI=1S/C5H8N4/c1-3-7-4(2)9-5(6)8-3/h1-2H3,(H2,6,7,8,9)","VQZRXBOTCNWNLM-UHFFFAOYSA-N","?","20","potentiometric","a/apparent","?","basic",3.6
"13961","O1(NCC=2(C=CC=CC=2(C1C)))","CC1ONCC2C=CC=CC=21","InChI=1S/C9H11NO/c1-7-9-5-3-2-4-8(9)6-10-11-7/h2-5,7,10H,6H2,1H3","QKFGIKOSWRJZGY-UHFFFAOYSA-N","?","20","potentiometric","a1/apparent","NH2(+)","basic",3.6
"17815","[Br]C=1(SC(N)=NC=1)","NC1=NC=C(Br)S1","InChI=1S/C3H3BrN2S/c4-2-1-6-3(5)7-2/h1H,(H2,5,6)","ARHCLXWELPFVFQ-UHFFFAOYSA-N","?","25","potentiometric","a1/thermodynamic","?","basic",3.61
"10170","[O-][N+]1(=CC=C(N)C=C1)","NC1C=C[N+]([O-])=CC=1","InChI=1S/C5H6N2O/c6-5-1-3-7(8)4-2-5/h1-4H,6H2","NDMWRWICFFKKDR-UHFFFAOYSA-N","?","23","mean from 2","a2/apparent","?","basic",3.61
"11741","O=C(C1(=CC(N)=CC=C1))C","C=C(O)C1C=CC=C(N)C=1","InChI=1S/C8H9NO/c1-6(10)7-3-2-4-8(9)5-7/h2-5,10H,1,9H2","PZEJMHUJFBDNJN-UHFFFAOYSA-N","?","25","mean from 3","a1/apparent","-NH3(1+)","basic",3.61
"10228","S(C1(=NC=CC=C1))C","CSC1C=CC=CN=1","InChI=1S/C6H7NS/c1-8-6-4-2-3-5-7-6/h2-5H,1H3","VLQBSKLZRSUMTJ-UHFFFAOYSA-N","?","20","potentiometric","apparent","NH+","basic",3.62
"15289","S(=O)(C3(=CC(OC)=C(C1(=NC=2(N=NC=CC=2(N1))))C=C3))C","CS(=O)C1=CC(OC)=C(C=C1)C1NC2C=CN=NC=2N=1","InChI=1S/C13H12N4O2S/c1-19-11-7-8(20(2)18)3-4-9(11)12-15-10-5-6-14-17-13(10)16-12/h3-7H,1-2H3,(H,15,16,17)","OGNUMJQMWMMEQO-UHFFFAOYSA-N","?, ?","25","mean from 2","a1/apparent","?, ?","basic",3.63
"16990","N1(=C(C=CC(=C1)C2([NH+](CCC2)C))CCC)","CCCC1=CC=C(C=N1)C1CCCN1C","InChI=1S/C13H20N2/c1-3-5-12-8-7-11(10-14-12)13-6-4-9-15(13)2/h7-8,10,13H,3-6,9H2,1-2H3","PRZWMEZZLSVZHL-UHFFFAOYSA-N","?","25","spectrophotometric","a1/apparent","?","basic",3.65
"17569","O(N(C)C)C","CON(C)C","InChI=1S/C3H9NO/c1-4(2)5-3/h1-3H3","QVDVENIYNXDSOK-UHFFFAOYSA-N","?",,"potentiometric","a/thermodynamic","?","basic",3.65
"12975","O(C1(=NC=NC(=C1)C))C","CC1=CC(=NC=N1)OC","InChI=1S/C6H8N2O/c1-5-3-6(9-2)8-4-7-5/h3-4H,1-2H3","GGFJPYWUQCOYLQ-UHFFFAOYSA-N","?",,"potentiometric","a/apparent","?","basic",3.65
"15686","O=[N+]([O-])C2(=CC=C(C=NC1(=NC(=CC=N1)C))C=C2)","CC1=CC=NC(=N1)N=CC1C=CC(=CC=1)[N+]([O-])=O","InChI=1S/C12H10N4O2/c1-9-6-7-13-12(15-9)14-8-10-2-4-11(5-3-10)16(17)18/h2-8H,1H3","RADTZXYMUYYCCJ-UHFFFAOYSA-N","?","25",,"a1/apparent","?","basic",3.66
"15095","O=C(N(C1(=CN=CC=C1))C)C2(=CC=CC=C2)","CN(C(=O)C1C=CC=CC=1)C1=CN=CC=C1","InChI=1S/C13H12N2O/c1-15(12-8-5-9-14-10-12)13(16)11-6-3-2-4-7-11/h2-10H,1H3","QSAJIHDDFMPVMG-UHFFFAOYSA-N","?",,"spectrophotometric","a/apparent","?","basic",3.66
"15562","N3(=C(NCC1(=CC=CC=C1))C2(=C(N(C)N=C2)N=C3))","CN1N=CC2C(NCC3C=CC=CC=3)=NC=NC1=2","InChI=1S/C13H13N5/c1-18-13-11(8-17-18)12(15-9-16-13)14-7-10-5-3-2-4-6-10/h2-6,8-9H,7H2,1H3,(H,14,15,16)","IGHOYJOUGQNIAB-UHFFFAOYSA-N","?","20","spectrophotometric","a/apparent","?","basic",3.66
"17285","N=1(NC=CC=1C)","CC1C=CNN=1","InChI=1S/C4H6N2/c1-4-2-3-5-6-4/h2-3H,1H3,(H,5,6)","XKVUYEYANWFIJX-UHFFFAOYSA-N","?","20","mean from 2","a1/apparent","?","basic",3.66
"12913","[Br]C=1(SC(N(C)C)=NC=1)","CN(C)C1=NC=C(Br)S1","InChI=1S/C5H7BrN2S/c1-8(2)5-7-3-4(6)9-5/h3H,1-2H3","FBKKLSJTAVXQBV-UHFFFAOYSA-N","?","25","spectrophotometric","a1/thermodynamic","?","basic",3.66
"13448","O(C1(=NC(N)=C2(C=NN(C2(=N1))C)))C","COC1N=C2C(C=NN2C)=C(N)N=1","InChI=1S/C7H9N5O/c1-12-6-4(3-9-12)5(8)10-7(11-6)13-2/h3H,1-2H3,(H2,8,10,11)","QXDPBVZHDZDTGK-UHFFFAOYSA-N","?","20","spectrophotometric","a/apparent","?","basic",3.66
"12195","O(CCNC1(=CC(OC)=CC=C1))CC","COC1C=C(C=CC=1)NCCOCC","InChI=1S/C11H17NO2/c1-3-14-8-7-12-10-5-4-6-11(9-10)13-2/h4-6,9,12H,3,7-8H2,1-2H3","MERNYWDEBNKKKZ-UHFFFAOYSA-N","?","24.9","spectrophotometric","a1/apparent","NH","basic",3.67
"14023","N1(=NC=CC=2(C1=C(N)C=CC=2))","NC1C=CC=C2C=CN=NC2=1","InChI=1S/C8H7N3/c9-7-3-1-2-6-4-5-10-11-8(6)7/h1-5H,9H2","RSGJRKSGEFJCKO-UHFFFAOYSA-N","?","20","potentiometric","a/apparent","?","basic",3.68
"11217","ClC=2(C=1(C(=NC=CC=1)C(O)=CC=2))","OC1=CC=C(Cl)C2=CC=CN=C21","InChI=1S/C9H6ClNO/c10-7-3-4-8(12)9-6(7)2-1-5-11-9/h1-5,12H","CTQMJYWDVABFRZ-UHFFFAOYSA-N","?","25","spectrophotometric","a1/apparent","H+ of NH+","basic",3.68
"13658","O(C1(=CC(NCCOC)=CC=C1))C","COCCNC1C=C(C=CC=1)OC","InChI=1S/C10H15NO2/c1-12-7-6-11-9-4-3-5-10(8-9)13-2/h3-5,8,11H,6-7H2,1-2H3","CNESIJAIVYJNQY-UHFFFAOYSA-N","?","24.9","spectrophotometric","a1/apparent","NH","basic",3.7
"13317","ClC2(=NC(C1(=NC=CC=C1))=CC=C2)","ClC1C=CC=C(N=1)C1C=CC=CN=1","InChI=1S/C10H7ClN2/c11-10-6-3-5-9(13-10)8-4-1-2-7-12-8/h1-7H","XRCUTZKABNKOEY-UHFFFAOYSA-N","?","20","spectrophotometric","a1/apparent","=NH(+)-","basic",3.7
"11131","N(C=1(C=2(C(C=CC=1)=CC=CC=2)))C","CNC1=CC=CC2=CC=CC=C21","InChI=1S/C11H11N/c1-12-11-8-4-6-9-5-2-3-7-10(9)11/h2-8,12H,1H3","AKEYUWUEAXIBTF-UHFFFAOYSA-N","?","25","potentiometric","a/thermodynamic","H%+&","basic",3.7
"10162","O(C1(=CN=NC=C1))C","COC1=CN=NC=C1","InChI=1S/C5H6N2O/c1-8-5-2-3-6-7-4-5/h2-4H,1H3","NSGNREBTEFKPIL-UHFFFAOYSA-N","?","20","potentiometric","a/apparent","?","basic",3.7
"11116","[O-][N+]1(=C(N=C2(N=CNC2(=C1N)))N)","NC1=C2NC=NC2=NC(N)=[N+]1[O-]","InChI=1S/C5H6N6O/c6-3-2-4(9-1-8-2)10-5(7)11(3)12/h1H,6H2,(H3,7,8,9,10)","VUNJMZVRHYNKSG-UHFFFAOYSA-N","?",,"spectrophotometric","a2/apparent","?","basic",3.7
"11256","O(C1(=NC(N)=C2(NC=NC2(=N1))))C","COC1N=C2N=CNC2=C(N)N=1","InChI=1S/C6H7N5O/c1-12-6-10-4(7)3-5(11-6)9-2-8-3/h2H,1H3,(H3,7,8,9,10,11)","TUDKBZAMOFJOSO-UHFFFAOYSA-N","?",,"spectrophotometric","a1/apparent","?","basic",3.7
"13960","O1(NC(C=2(C=CC=CC=2(C1)))C)","CC1NOCC2C=CC=CC=21","InChI=1S/C9H11NO/c1-7-9-5-3-2-4-8(9)6-11-10-7/h2-5,7,10H,6H2,1H3","VVLKUGPKMYKXDM-UHFFFAOYSA-N","?","20","potentiometric","a1/apparent","NH2(+)","basic",3.7
"14304","N1(=NC=CC=C1CCCCC)","CCCCCC1=CC=CN=N1","InChI=1S/C9H14N2/c1-2-3-4-6-9-7-5-8-10-11-9/h5,7-8H,2-4,6H2,1H3","SRYJJAHAGDPOHL-UHFFFAOYSA-N","?","19","potentiometric","a/apparent","?","basic",3.7
"12560","ON=C2(C1(=NC=CC=C1C(=NO)C=C2))","O=NC1C=CC(N=O)C2C=CC=NC=21","InChI=1S/C9H7N3O2/c13-11-7-3-4-8(12-14)9-6(7)2-1-5-10-9/h1-5,7-8H","YAQIHBMPEQRRIF-UHFFFAOYSA-N","?","25","spectrophotometric","a1/apparent","prot.","basic",3.7
"12853","N1(=NC(=C(C)N=C1N)C)","CC1N=C(N)N=NC=1C","InChI=1S/C5H8N4/c1-3-4(2)8-9-5(6)7-3/h1-2H3,(H2,6,7,9)","UIKGLXJNZXSPGV-UHFFFAOYSA-N","?","20","potentiometric","a1/apparent","?","basic",3.71
"11736","OB(O)C1(=CC=C(N)C=C1)","NC1=CC=C(C=C1)B(O)O","InChI=1S/C6H8BNO2/c8-6-3-1-5(2-4-6)7(9)10/h1-4,9-10H,8H2","MKPDAJWEBQRQCO-UHFFFAOYSA-N","?","25","potentiometric","apparent","NH3+","basic",3.71
"10791","O=C(OC)CC1(=C(N)C=CC=C1)","COC(O)=CC1C=CC=CC=1N","InChI=1S/C9H11NO2/c1-12-9(11)6-7-4-2-3-5-8(7)10/h2-6,11H,10H2,1H3","SBIKFWGAZFUMSM-UHFFFAOYSA-N","?","30","spectrophotometric","a1/apparent","NH2-H","basic",3.71
"14477","O(C1(=C(N)C=C(OC)C=C1))C","COC1C=CC(=CC=1N)OC","InChI=1S/C8H11NO2/c1-10-6-3-4-8(11-2)7(9)5-6/h3-5H,9H2,1-2H3","NAZDVUBIEPVUKE-UHFFFAOYSA-N","?","25","potentiometric","a/apparent","?","basic",3.72
"14439","O(C1(=CC=C(NCO)C=C1))C","COC1C=CC(=CC=1)NCO","InChI=1S/C8H11NO2/c1-11-8-4-2-7(3-5-8)9-6-10/h2-5,9-10H,6H2,1H3","KKMZNAGXQWTHAT-UHFFFAOYSA-N","?","25","spectrophotometric","a1/thermodynamic","?","basic",3.72
"10279","O=CC1(=CN=CC=C1)","O=CC1=CN=CC=C1","InChI=1S/C6H5NO/c8-5-6-2-1-3-7-4-6/h1-5H","QJZUKDFHGGYHMC-UHFFFAOYSA-N","?","20","mean from 4","a1/apparent","NH(1+)","basic",3.73
"14511","OCN(C1(=CC=C(C)C=C1))C","CC1C=CC(=CC=1)N(C)CO","InChI=1S/C9H13NO/c1-8-3-5-9(6-4-8)10(2)7-11/h3-6,11H,7H2,1-2H3","SEAGQHIMUDGAIT-UHFFFAOYSA-N","?","25","spectrophotometric","a1/thermodynamic","?","basic",3.73
"12375","N1(=C(CC(C)=NC2(=C1C=C(C)C=C2))C)","CC1C=CC2N=C(C)CC(C)=NC=2C=1","InChI=1S/C12H14N2/c1-8-4-5-11-12(6-8)14-10(3)7-9(2)13-11/h4-6H,7H2,1-3H3","BLIZGILQKYSTOU-UHFFFAOYSA-N","?, ?","25","conductometric","a1/apparent","?, ?","basic",3.75
"10070","NC1(=CC(N)=CC=C1)","NC1=CC(N)=CC=C1","InChI=1S/C6H8N2/c7-5-2-1-3-6(8)4-5/h1-4H,7-8H2","WZCQRUWWHSTZEM-UHFFFAOYSA-N","?, ?","21","mean from 9","a1/apparent","NH2, NH%+&","basic",3.75
"13281","N=2(C1(=NC(=C(C)N=C1C=NC=2C)C))","CC1N=CC2=NC(C)=C(C)N=C2N=1","InChI=1S/C9H10N4/c1-5-6(2)12-9-8(11-5)4-10-7(3)13-9/h4H,1-3H3","ZGWOCNDIGLJDDX-UHFFFAOYSA-N","?","20","potentiometric","a/apparent","?","basic",3.76
"16924","NC3(=C(C=C(C(C1(=CC=C(N)C=C1))C2(=CC=C(N)C=C2))C=C3)C)","CC1C=C(C=CC=1N)C(C1C=CC(N)=CC=1)C1C=CC(N)=CC=1","InChI=1S/C20H21N3/c1-13-12-16(6-11-19(13)23)20(14-2-7-17(21)8-3-14)15-4-9-18(22)10-5-15/h2-12,20H,21-23H2,1H3","ITCXLPKDGZPCRM-UHFFFAOYSA-N","?, ?, ?","18","potentiometric","a/apparent","1.Stufe, 3.Stufe, 2.Stufe","basic",3.7666666666666666
"16262","O=C(NCC(=O)O)C1(=C(OC(=O)C)C=CC=C1)","C=C(O)OC1=CC=CC=C1C(=O)N=CC(O)O","InChI=1S/C11H11NO5/c1-7(13)17-9-5-3-2-4-8(9)11(16)12-6-10(14)15/h2-6,10,13-15H,1H2","LTGAUYSNZRPYCR-UHFFFAOYSA-N","?","37",,"a1/apparent","COOH","basic",3.77
"13008","N1(C(=C(C)C(=C1C)C)C)","CC1=C(C)NC(C)=C1C","InChI=1S/C8H13N/c1-5-6(2)8(4)9-7(5)3/h9H,1-4H3","BDXJANJAHYKTMI-UHFFFAOYSA-N","?",,"spectrophotometric","a/apparent","?","basic",3.77
"14388","NC1(=C(C=CC=C1)C(C)(C)C)","CC(C)(C)C1C=CC=CC=1N","InChI=1S/C10H15N/c1-10(2,3)8-6-4-5-7-9(8)11/h4-7H,11H2,1-3H3","AEIOZWYBDBVCGW-UHFFFAOYSA-N","?","25","potentiometric","a/apparent","?","basic",3.78
"13309","N1(=C(C=CC(=C1)C2([NH+](CCC2)C))C)","CC1=CC=C(C=N1)C1CCCN1C","InChI=1S/C11H16N2/c1-9-5-6-10(8-12-9)11-4-3-7-13(11)2/h5-6,8,11H,3-4,7H2,1-2H3","SWNIAVIKMKSDBJ-UHFFFAOYSA-N","?","25","spectrophotometric","a1/apparent","?","basic",3.78