"Molecule name","OriginalSmiles","Canonical_QSARr","InChI_Code_QSARr","InChI Key_QSARr","Salt_Solvent (Concatenate)","temp","method","type","group","basicOrAcidic","pKa"
"15963","ClC1(=C(OC)C(=C([O-])C(=C1)Cl)C(=O)NCC2(N(CCC2)CC))","CCN1CCCC1CNC(=O)C1=C(O)C(Cl)=CC(Cl)=C1OC","InChI=1S/C15H20Cl2N2O3/c1-3-19-6-4-5-9(19)8-18-15(21)12-13(20)10(16)7-11(17)14(12)22-2/h7,9,20H,3-6,8H2,1-2H3,(H,18,21)","WAOQONBSWFLFPE-UHFFFAOYSA-N","?","25","potentiometric","a2/apparent","NH","basic",9.12
"16853","O=[N+]([O-])C1(=C([O-])C(=C(OC)C=C1)C(=O)NCC2(N(CCC2)CC))","CCN1CCCC1CNC(=O)C1C(O)=C(C=CC=1OC)[N+]([O-])=O","InChI=1S/C15H21N3O5/c1-3-17-8-4-5-10(17)9-16-15(20)13-12(23-2)7-6-11(14(13)19)18(21)22/h6-7,10,19H,3-5,8-9H2,1-2H3,(H,16,20)","CQEIHZMCJGGOEX-UHFFFAOYSA-N","?","25","potentiometric","a2/apparent","NH","basic",9.12
"16684","N24(C(C1(=C(C=CC=C1)C(C2)C3(=CC=CC=C3)))CCC4)","C1C(C2C=CC=CC=2C2CCCN21)C1C=CC=CC=1","InChI=1S/C18H19N/c1-2-7-14(8-3-1)17-13-19-12-6-11-18(19)16-10-5-4-9-15(16)17/h1-5,7-10,17-18H,6,11-13H2","KJHWRRVSXANANB-UHFFFAOYSA-N","?","25","potentiometric","a1/apparent","?","basic",9.12
"17715","OCC(NC)CO","CNC(CO)CO","InChI=1S/C4H11NO2/c1-5-4(2-6)3-7/h4-7H,2-3H2,1H3","YMFOWIJFFPALOW-UHFFFAOYSA-N","?","25","potentiometric","a1/apparent","?","basic",9.12
"13815","N1(NC2(CCC1C2))(C(C)(C)C)","CC(C)(C)N1NC2CC1CC2","InChI=1S/C9H18N2/c1-9(2,3)11-8-5-4-7(6-8)10-11/h7-8,10H,4-6H2,1-3H3","XOELEERGUOBTIU-UHFFFAOYSA-N","?","24","spectrophotometric","a1/apparent","NH%+&*","basic",9.12
"16686","O=C4(C2(C3(C1(N(CCCC1C(C2)O)CCC3)(CC4C))))","CC1CC23C4CCCN2CCCC3C(O)CC4C=1O","InChI=1S/C16H25NO2/c1-10-9-16-12-4-2-6-17(16)7-3-5-13(16)14(18)8-11(12)15(10)19/h11-14,18-19H,2-9H2,1H3","HOXQIPOLMOSVIF-UHFFFAOYSA-N","?",,,"a/apparent","NH%+&","basic",9.13
"15836","[O-]C=1(N(N=C(C=1CC2(=CC=CC=C2))C3(=CC=CC=C3))C4(CCN(C)CC4))","CN1CCC(CC1)N1N=C(C2C=CC=CC=2)C(CC2C=CC=CC=2)=C1O","InChI=1S/C22H25N3O/c1-24-14-12-19(13-15-24)25-22(26)20(16-17-8-4-2-5-9-17)21(23-25)18-10-6-3-7-11-18/h2-11,19,26H,12-16H2,1H3","VLAPQJBAECXKRC-UHFFFAOYSA-N","?",,"potentiometric","a2/apparent","?","basic",9.13
"10451","O=C(OCC)CCN","CCOC(O)=CCN","InChI=1S/C5H11NO2/c1-2-8-5(7)3-4-6/h3,7H,2,4,6H2,1H3","HQJQYIJZHVJIQB-UHFFFAOYSA-N","?","25","potentiometric","apparent","NH3+","basic",9.13
"10836","OC1(=CC=C(CCC(N)C)C=C1)","CC(N)CCC1C=CC(O)=CC=1","InChI=1S/C10H15NO/c1-8(11)2-3-9-4-6-10(12)7-5-9/h4-8,12H,2-3,11H2,1H3","WNTVTQIJPAFZEL-UHFFFAOYSA-N","?","25","potentiometric","b/apparent","?","basic",9.14
"13160","N1(=CC(NC)=C(N)C=C1)","CNC1C=NC=CC=1N","InChI=1S/C6H9N3/c1-8-6-4-9-3-2-5(6)7/h2-4,8H,1H3,(H2,7,9)","QLIOXRPNGUADBG-UHFFFAOYSA-N","?","20","potentiometric","a1/apparent","?","basic",9.14
"12063","O=C([O-])C12(OC1CCNC2)","OC(=O)C12CNCCC1O2","InChI=1S/C6H9NO3/c8-5(9)6-3-7-2-1-4(6)10-6/h4,7H,1-3H2,(H,8,9)","YDQZPAOBSMQNLN-UHFFFAOYSA-N","?","24",,"a2/apparent","NH(1+)","basic",9.14
"16559","[O-]C=1(N(N=C(C=1CC)C2(=CC=CC=C2))C3(CCN(C)CC3))","CN1CCC(CC1)N1N=C(C(CC)=C1O)C1C=CC=CC=1","InChI=1S/C17H23N3O/c1-3-15-16(13-7-5-4-6-8-13)18-20(17(15)21)14-9-11-19(2)12-10-14/h4-8,14,21H,3,9-12H2,1-2H3","CLNZYZDSKUHCHU-UHFFFAOYSA-N","?",,"potentiometric","a2/apparent","?","basic",9.15
"17844","N=C1(CCCCC1)","N=C1CCCCC1","InChI=1S/C6H11N/c7-6-4-2-1-3-5-6/h7H,1-5H2","NNGAQKAUYDTUQR-UHFFFAOYSA-N","?",,"potentiometric","a/apparent","?","basic",9.15
"10105","N1(=CC(=C(N)C=C1)C)","CC1C=NC=CC=1N","InChI=1S/C6H8N2/c1-5-4-8-3-2-6(5)7/h2-4H,1H3,(H2,7,8)","VGJLGPCXUGIXRQ-UHFFFAOYSA-N","?","20","potentiometric","a1/apparent","?","basic",9.15
"10820","O=C([O-])C(N)CC1(=CC=CC=C1)","N=C(CC1C=CC=CC=1)C(O)O","InChI=1S/C9H11NO2/c10-8(9(11)12)6-7-4-2-1-3-5-7/h1-5,9-12H,6H2","IFPMCLKDZKRKHI-UHFFFAOYSA-N","?, ?","23","mean from 8","a2/apparent","NH3%+&, NH2(+)-H","basic",9.155000000000001
"16586","ClC2(=CC=C(C(C1(=NC=CC=C1))CCN(C)C)C=C2)","CN(C)CCC(C1C=CC=CN=1)C1C=CC(Cl)=CC=1","InChI=1S/C16H19ClN2/c1-19(2)12-10-15(16-5-3-4-11-18-16)13-6-8-14(17)9-7-13/h3-9,11,15H,10,12H2,1-2H3","SOYKEARSMXGVTM-UHFFFAOYSA-N","?","25","potentiometric","a/apparent","?","basic",9.16
"17782","N1(=CC=C(N)C=C1)","NC1C=CN=CC=1","InChI=1S/C5H6N2/c6-5-1-3-7-4-2-5/h1-4H,(H2,6,7)","NUKYPUAOHBNCPY-UHFFFAOYSA-N","?","24","mean from 16","a1/apparent","NH(1+)","basic",9.16
"17842","[O-]C1(=NC=CC=N1)","OC1N=CC=CN=1","InChI=1S/C4H4N2O/c7-4-5-2-1-3-6-4/h1-3H,(H,5,6,7)","VTGOHKSTWXHQJK-UHFFFAOYSA-N","?",,"potentiometric","a2/apparent","?","basic",9.17
"12899","N1(=CC(=C(N)C=C1)CC)","CCC1C=NC=CC=1N","InChI=1S/C7H10N2/c1-2-6-5-9-4-3-7(6)8/h3-5H,2H2,1H3,(H2,8,9)","ODKNKXQVRUFTPT-UHFFFAOYSA-N","?","20","potentiometric","a1/apparent","?","basic",9.17
"14644","O=[N+]([O-])C1(=CC=C(OC(=O)CCN)C=C1)","NCC=C(O)OC1C=CC(=CC=1)[N+]([O-])=O","InChI=1S/C9H10N2O4/c10-6-5-9(12)15-8-3-1-7(2-4-8)11(13)14/h1-5,12H,6,10H2","ASCPESBPAKLGEC-UHFFFAOYSA-N","?","30","spectrophotometric","a1/apparent","?","basic",9.17
"13670","O(CC1(=C(C=CC=C1)CN(C)C))C","COCC1C=CC=CC=1CN(C)C","InChI=1S/C11H17NO/c1-12(2)8-10-6-4-5-7-11(10)9-13-3/h4-7H,8-9H2,1-3H3","RNCOHQRYGWUYPZ-UHFFFAOYSA-N","?","25","potentiometric","a1/thermodynamic","N-H%+&","basic",9.19
"13193","N(CCCN(CC)CC)(CC)CC","CCN(CCCN(CC)CC)CC","InChI=1S/C11H26N2/c1-5-12(6-2)10-9-11-13(7-3)8-4/h5-11H2,1-4H3","RCZLVPFECJNLMZ-UHFFFAOYSA-N","?, ?","25","potentiometric","a/thermodynamic","?, ?","basic",9.19
"16350","OC(CN(CC(O)C)CCCCCCCCCCCCCCCC)C","CCCCCCCCCCCCCCCCN(CC(C)O)CC(C)O","InChI=1S/C22H47NO2/c1-4-5-6-7-8-9-10-11-12-13-14-15-16-17-18-23(19-21(2)24)20-22(3)25/h21-22,24-25H,4-20H2,1-3H3","MNDXNPPBHMRCOA-UHFFFAOYSA-N","?",,"potentiometric","a/apparent","prot.","basic",9.19
"13800","[O-]C2(=NC=1(N(C=NC=1C=N2)C))","CN1C=NC2C=NC(O)=NC1=2","InChI=1S/C6H6N4O/c1-10-3-8-4-2-7-6(11)9-5(4)10/h2-3H,1H3,(H,7,9,11)","KAFRGVQIHRFFBB-UHFFFAOYSA-N","?","20","potentiometric","a/apparent","?","basic",9.19
"10768","SCCNCCC1(=CC=CC=C1)","SCCNCCC1C=CC=CC=1","InChI=1S/C10H15NS/c12-9-8-11-7-6-10-4-2-1-3-5-10/h1-5,11-12H,6-9H2","SWQCRWGJYVDLAO-UHFFFAOYSA-N","?, ?","17","potentiometric","b/apparent","?, NH3(1+)","basic",9.195
"13213","OC(CN(CC(O)CC)CC)CC","CCN(CC(O)CC)CC(O)CC","InChI=1S/C10H23NO2/c1-4-9(12)7-11(6-3)8-10(13)5-2/h9-10,12-13H,4-8H2,1-3H3","VDHZYHFSCAGWNA-UHFFFAOYSA-N","?","20","potentiometric","a1/apparent","-NH3%+&","basic",9.2
"15191","OC(CN(CC(O)CC)CCCCC)CC","CCCCCN(CC(O)CC)CC(O)CC","InChI=1S/C13H29NO2/c1-4-7-8-9-14(10-12(15)5-2)11-13(16)6-3/h12-13,15-16H,4-11H2,1-3H3","NJGOYIWDCISTKJ-UHFFFAOYSA-N","?","20","potentiometric","a1/apparent","-NH3%+&","basic",9.2
"15413","O(C(C1(=NC=CC=C1))(C2(=CC=CC=C2))C)CCN(C)C","CN(C)CCOC(C)(C1C=CC=CN=1)C1C=CC=CC=1","InChI=1S/C17H22N2O/c1-17(20-14-13-19(2)3,15-9-5-4-6-10-15)16-11-7-8-12-18-16/h4-12H,13-14H2,1-3H3","HCFDWZZGGLSKEP-UHFFFAOYSA-N","?","25","potentiometric","a/apparent","?","basic",9.2
"15615","N(CC1(=C(C=CC=C1C(C)(C)C)C(C)(C)C))(C)C","CC(C)(C)C1=CC=CC(=C1CN(C)C)C(C)(C)C","InChI=1S/C17H29N/c1-16(2,3)14-10-9-11-15(17(4,5)6)13(14)12-18(7)8/h9-11H,12H2,1-8H3","BVAFYOUZFHJZKN-UHFFFAOYSA-N","?","25","potentiometric","b1/apparent","?","basic",9.2
"12260","OCCN(CCO)CCC1(=NN=NN1)","OCCN(CCO)CCC1NN=NN=1","InChI=1S/C7H15N5O2/c13-5-3-12(4-6-14)2-1-7-8-10-11-9-7/h13-14H,1-6H2,(H,8,9,10,11)","AHFVLWRCUHFUJY-UHFFFAOYSA-N","?","20","potentiometric","a1/apparent","N-H","basic",9.2
"11331","OC(CN(CC(O)C)CC)CC","CC(O)CN(CC(O)CC)CC","InChI=1S/C9H21NO2/c1-4-9(12)7-10(5-2)6-8(3)11/h8-9,11-12H,4-7H2,1-3H3","FOYXDUZLHTUVBS-UHFFFAOYSA-N","?","20","potentiometric","a1/apparent","-NH3%+&","basic",9.2
"11336","OC(CN(C(C)(C)C)CCO)C","CC(O)CN(CCO)C(C)(C)C","InChI=1S/C9H21NO2/c1-8(12)7-10(5-6-11)9(2,3)4/h8,11-12H,5-7H2,1-4H3","XABDWXQKURMBNI-UHFFFAOYSA-N","?","20","potentiometric","a1/apparent","-NH3%+&","basic",9.2
"14988","O(C3(=CC1(=C(NC2(=C1CCN=C2C))C=C3)))C","CC1=NCCC2=C1NC1C=CC(=CC2=1)OC","InChI=1S/C13H14N2O/c1-8-13-10(5-6-14-8)11-7-9(16-2)3-4-12(11)15-13/h3-4,7,15H,5-6H2,1-2H3","HMBHRMFLDKKSCT-UHFFFAOYSA-N","?","25","spectrophotometric","b1/apparent","N-7","basic",9.21
"12024","NC2(C1(=C(C=CC=C1)CC2))","NC1CCC2C=CC=CC=21","InChI=1S/C9H11N/c10-9-6-5-7-3-1-2-4-8(7)9/h1-4,9H,5-6,10H2","XJEVHMGJSYVQBQ-UHFFFAOYSA-N","?","22","mean from 2","a/thermodynamic","?","basic",9.21
"10690","O=C([O-])C(N)CC1(=CC=NC=C1)","N=C(CC1C=CN=CC=1)C(O)O","InChI=1S/C8H10N2O2/c9-7(8(11)12)5-6-1-3-10-4-2-6/h1-4,8-9,11-12H,5H2","LIYYHTMISKFOTM-UHFFFAOYSA-N","?","23","potentiometric","b/apparent","?","basic",9.22
"15139","O=C(C1(=CC=CC=C1))CCN2(CCCCC2)","OC(=CCN1CCCCC1)C1C=CC=CC=1","InChI=1S/C14H19NO/c16-14(13-7-3-1-4-8-13)9-12-15-10-5-2-6-11-15/h1,3-4,7-9,16H,2,5-6,10-12H2","IUOHFXJMCGTBPI-UHFFFAOYSA-N","?","25","potentiometric","a1/thermodynamic","NH(1+)","basic",9.23
"15777","N2(=C(NC(CN1(CC(CCC1)(C)C))C)C=CC=C2)","CC(CN1CC(C)(C)CCC1)NC1C=CC=CN=1","InChI=1S/C15H25N3/c1-13(17-14-7-4-5-9-16-14)11-18-10-6-8-15(2,3)12-18/h4-5,7,9,13H,6,8,10-12H2,1-3H3,(H,16,17)","MGKJUUAAWKDBDO-UHFFFAOYSA-N","?","25","potentiometric","a1/apparent","N-H","basic",9.23
"15969","O=C(C(C1(=CC=CC=C1))(C2(=CC=CC=C2))CCN(C)C)CC","CC=C(O)C(CCN(C)C)(C1C=CC=CC=1)C1C=CC=CC=1","InChI=1S/C20H25NO/c1-4-19(22)20(15-16-21(2)3,17-11-7-5-8-12-17)18-13-9-6-10-14-18/h4-14,22H,15-16H2,1-3H3","LJWWNADUYHXYDO-UHFFFAOYSA-N","?","25","potentiometric","b1/apparent","?","basic",9.23
"17694","S(C(C)C)CCN","CC(C)SCCN","InChI=1S/C5H13NS/c1-5(2)7-4-3-6/h5H,3-4,6H2,1-2H3","QDMWHNBXADHQCO-UHFFFAOYSA-N","?","17","potentiometric","b/apparent","?","basic",9.23
"10899","O=C([O-])CNCCC1(=NN=N[N-]1)","OC(O)C=NCCC1=NNN=N1","InChI=1S/C5H9N5O2/c11-5(12)3-6-2-1-4-7-9-10-8-4/h3,5,11-12H,1-2H2,(H,7,8,9,10)","DQDKZXJJEVSKSP-UHFFFAOYSA-N","?","20","potentiometric","a3/apparent","N(1+)-H","basic",9.23
"12993","NCC1(=C(C=CC=C1)C)","CC1C=CC=CC=1CN","InChI=1S/C8H11N/c1-7-4-2-3-5-8(7)6-9/h2-5H,6,9H2,1H3","CJAAPVQEZPAQNI-UHFFFAOYSA-N","?","25","potentiometric","b/apparent","?","basic",9.23
"13355","[S-]C2(=[N+](C=1(C(=CC=CC=1)C(=N2)[O-]))C)","C[N+]1C(S)=NC(O)=C2C=CC=CC=12","InChI=1S/C9H8N2OS/c1-11-7-5-3-2-4-6(7)8(12)10-9(11)13/h2-5H,1H3,(H,10,12,13)/p+1","QYRHSCKVNACOHK-UHFFFAOYSA-O","?","25","spectrophotometric","a1/apparent","NH","basic",9.23
"16568","ClC3(=CC2(=NC=1(C(=CC(OC)=CC=1)C(=C2C=C3)NCCCCCCN(CC)CC)))","COC1C=C2C(NCCCCCCN(CC)CC)=C3C=CC(Cl)=CC3=NC2=CC=1","InChI=1S/C24H32ClN3O/c1-4-28(5-2)15-9-7-6-8-14-26-24-20-12-10-18(25)16-23(20)27-22-13-11-19(29-3)17-21(22)24/h10-13,16-17H,4-9,14-15H2,1-3H3,(H,26,27)","AKMRCRSBVXSYQI-UHFFFAOYSA-N","?, ?","30","potentiometric","a2/apparent","?, ?","basic",9.235
"10409","OCCNCCCN","NCCCNCCO","InChI=1S/C5H14N2O/c6-2-1-3-7-4-5-8/h7-8H,1-6H2","GHKSKVKCKMGRDU-UHFFFAOYSA-N","?, ?","22","potentiometric","a1/apparent","?, ?","basic",9.235
"13609","S(C(=N)C1(=CC=CC=C1))C(C)(C)C","CC(C)(C)SC(=N)C1C=CC=CC=1","InChI=1S/C11H15NS/c1-11(2,3)13-10(12)9-7-5-4-6-8-9/h4-8,12H,1-3H3","GZPSNKBNXHMSBW-UHFFFAOYSA-N","?","25",,"b/apparent","?","basic",9.24
"12149","O(C1(=CC=C(N=CN(C)C)C=C1))CC","CCOC1C=CC(=CC=1)N=CN(C)C","InChI=1S/C11H16N2O/c1-4-14-11-7-5-10(6-8-11)12-9-13(2)3/h5-9H,4H2,1-3H3","AAIKJGSGJCCZTH-UHFFFAOYSA-N","?","25","potentiometric","a1/apparent","N=C-H","basic",9.24
"14865","N1(CCCCCCN(C)CCCCCC1)(C)","CN1CCCCCCN(C)CCCCCC1","InChI=1S/C14H30N2/c1-15-11-7-3-5-9-13-16(2)14-10-6-4-8-12-15/h3-14H2,1-2H3","JDPYFUWQIDYYKI-UHFFFAOYSA-N","?","20","potentiometric","a/apparent","?","basic",9.24
"13035","ClC1(=CC=C(CN)C=C1)","NCC1C=CC(Cl)=CC=1","InChI=1S/C7H8ClN/c8-7-3-1-6(5-9)2-4-7/h1-4H,5,9H2","YMVFJGSXZNNUDW-UHFFFAOYSA-N","?","25","potentiometric","a1/apparent","?","basic",9.24
"12639","N(CCCCC#C)(C)C","CN(C)CCCCC#C","InChI=1S/C8H15N/c1-4-5-6-7-8-9(2)3/h1H,5-8H2,2-3H3","DUULHHHKEFHJAB-UHFFFAOYSA-N","?",,"potentiometric","a/apparent","?","basic",9.24
"17099","OC1(C#C)(C2(C(N(C)C(C1)C)CCCC2))","CC1CC(O)(C#C)C2CCCCC2N1C","InChI=1S/C13H21NO/c1-4-13(15)9-10(2)14(3)12-8-6-5-7-11(12)13/h1,10-12,15H,5-9H2,2-3H3","OMBITJGEGMMNIO-UHFFFAOYSA-N","?, ?, ?",,"potentiometric","a/apparent","NH+, NH+, NH+","basic",9.246666666666666
"15648","O=C1(C=CN2(CC3(C4(CCCCN4(CC(C2(C1))C3)))))","OC1=CC2C3CN4CCCCC4C(C3)CN2C=C1","InChI=1S/C15H22N2O/c18-13-4-6-17-9-11-7-12(15(17)8-13)10-16-5-2-1-3-14(11)16/h4,6,8,11-12,14-15,18H,1-3,5,7,9-10H2","MVUUWPHUQXABMC-UHFFFAOYSA-N","?","20","potentiometric","a/apparent","?","basic",9.25
"11915","O=C(CCN(CC)CC)C","CCN(CCC(=C)O)CC","InChI=1S/C8H17NO/c1-4-9(5-2)7-6-8(3)10/h10H,3-7H2,1-2H3","CADZOOZUQREMSZ-UHFFFAOYSA-N","?",,"potentiometric","a/apparent","?","basic",9.25
"11314","O=C(NCCCN(C)C)C(=C)C","CC(=C)C(=O)NCCCN(C)C","InChI=1S/C9H18N2O/c1-8(2)9(12)10-6-5-7-11(3)4/h1,5-7H2,2-4H3,(H,10,12)","GDFCSMCGLZFNFY-UHFFFAOYSA-N","?","25","potentiometric","a1/apparent","?","basic",9.25
"10689","O=C([O-])C(N)CC1(=CN=CC=C1)","N=C(CC1C=NC=CC=1)C(O)O","InChI=1S/C8H10N2O2/c9-7(8(11)12)4-6-2-1-3-10-5-6/h1-3,5,8-9,11-12H,4H2","PUKKLOIYGGUDIZ-UHFFFAOYSA-N","?","23","mean from 2","a/apparent","?","basic",9.26
"17043","O=C([O-])C2(N(C(=O)C1(NCCC1))CCC2)","OC(O)=C1CCCN1C(O)C1CCCN=1","InChI=1S/C10H16N2O3/c13-9(7-3-1-5-11-7)12-6-2-4-8(12)10(14)15/h9,13-15H,1-6H2","RYLWFIZDGLVLQF-UHFFFAOYSA-N","?","25","potentiometric","b1/apparent","?","basic",9.27
"17751","O=C([O-])C(O)CN","NCC(O)=C(O)O","InChI=1S/C3H7NO3/c4-1-2(5)3(6)7/h5-7H,1,4H2","WQQTVMDBIWUNEJ-UHFFFAOYSA-N","?","25","potentiometric","apparent","NH3%+&","basic",9.27
"11343","O=C([O-])CCC#CC#CCCN","NCCC#CC#CCC=C(O)O","InChI=1S/C9H11NO2/c10-8-6-4-2-1-3-5-7-9(11)12/h7,11-12H,5-6,8,10H2","OROGSCALHOUMNI-UHFFFAOYSA-N","?","20",,"b1/apparent","?","basic",9.27
"11170","O=C(OC1(C2(CCN(C1)CC2)))C","C=C(O)OC1CN2CCC1CC2","InChI=1S/C9H15NO2/c1-7(11)12-9-6-10-4-2-8(9)3-5-10/h8-9,11H,1-6H2","HUPCUIBFJZFOEP-UHFFFAOYSA-N","?","25",,"a1/apparent","?","basic",9.27
"16875","OC(C4(C3(C(C2(C(C1(C(CC(N)CC1)CC2)(C))CC3))CC4)(C)))C","CC(O)C1CCC2C3CCC4CC(N)CCC4(C)C3CCC21C","InChI=1S/C21H37NO/c1-13(23)17-6-7-18-16-5-4-14-12-15(22)8-10-20(14,2)19(16)9-11-21(17,18)3/h13-19,23H,4-12,22H2,1-3H3","VIQFMADXQMGZER-UHFFFAOYSA-N","?",,,"a/apparent","?","basic",9.28
"12290","O(CCN(CC)CC)CCN(CC)C","CN(CCOCCN(CC)CC)CC","InChI=1S/C11H26N2O/c1-5-12(4)8-10-14-11-9-13(6-2)7-3/h5-11H2,1-4H3","ZENJPYHJYQGXPB-UHFFFAOYSA-N","?, ?",,"potentiometric","a2/apparent","?, ?","basic",9.29
"15696","N1(=C(C=CC=C1)C(C2(=CC=CC=C2))CCN(C)C)","CN(C)CCC(C1C=CC=CN=1)C1C=CC=CC=1","InChI=1S/C16H20N2/c1-18(2)13-11-15(14-8-4-3-5-9-14)16-10-6-7-12-17-16/h3-10,12,15H,11,13H2,1-2H3","IJHNSHDBIRRJRN-UHFFFAOYSA-N","?","25","potentiometric","a/apparent","?","basic",9.29
"12942","[O-]C1(=[NH+]C([O-])=CC(=N1)C)","CC1=CC(O)=NC(O)=N1","InChI=1S/C5H6N2O2/c1-3-2-4(8)7-5(9)6-3/h2H,1H3,(H2,6,7,8,9)","SHVCSCWHWMSGTE-UHFFFAOYSA-N","?","25","mean from 4","apparent","?","basic",9.29
"14095","N(C(C#C)(C)C)(C(C)(C)C)C","CC(C)(C)N(C)C(C)(C)C#C","InChI=1S/C10H19N/c1-8-10(5,6)11(7)9(2,3)4/h1H,2-7H3","PAVORIOUUILGMQ-UHFFFAOYSA-N","?","25","potentiometric","a1/apparent","?","basic",9.3
"11346","O=C(C(CN(C)C)(C)C)C(C)C","CC(C)=C(O)C(C)(C)CN(C)C","InChI=1S/C10H21NO/c1-8(2)9(12)10(3,4)7-11(5)6/h12H,7H2,1-6H3","WCLXSUXEYXTXBM-UHFFFAOYSA-N","?","30",,"a1/apparent","?","basic",9.3
"13216","OC(CN(CC(O)C)CCCC)C","CCCCN(CC(C)O)CC(C)O","InChI=1S/C10H23NO2/c1-4-5-6-11(7-9(2)12)8-10(3)13/h9-10,12-13H,4-8H2,1-3H3","UMXUEZVHHYJJQP-UHFFFAOYSA-N","?",,"potentiometric","a/apparent","prot.","basic",9.3
"15034","N=2(C1(=C(N)C=CC=C1C(N)=C3(C=2C=CC=C3)))","NC1C2=CC=CC(N)=C2N=C2C=CC=CC=12","InChI=1S/C13H11N3/c14-10-6-3-5-9-12(15)8-4-1-2-7-11(8)16-13(9)10/h1-7H,14H2,(H2,15,16)","GMEWCSYWIUXOPR-UHFFFAOYSA-N","?","20","spectrophotometric","a/apparent","?","basic",9.3
"16045","O=C([O-])CCCCCCCCCCNCC=C","C=CCNCCCCCCCCCC=C(O)O","InChI=1S/C14H27NO2/c1-2-12-15-13-10-8-6-4-3-5-7-9-11-14(16)17/h2,11,15-17H,1,3-10,12-13H2","RUQXAEIDTWIAEE-UHFFFAOYSA-N","?",,"potentiometric","a2/apparent","?","basic",9.3
"15642","O=C4(N1(C(C2(CN3(CCCCC3(C(C1)C2))))CCC4))","OC1=CCCC2C3CN4CCCCC4C(CN12)C3","InChI=1S/C15H24N2O/c18-15-6-3-5-14-11-8-12(10-17(14)15)13-4-1-2-7-16(13)9-11/h6,11-14,18H,1-5,7-10H2","IXVGJGPHYKDFTB-UHFFFAOYSA-N","?, ?","20","potentiometric","a/apparent","?, ?","basic",9.3
"17429","ClC(Cl)=CCN","NCC=C(Cl)Cl","InChI=1S/C3H5Cl2N/c4-3(5)1-2-6/h1H,2,6H2","BHIBCNAIPLXFBF-UHFFFAOYSA-N","?","20","potentiometric","b/apparent","?","basic",9.3
"17451","OC(CO)CN","NCC(O)CO","InChI=1S/C3H9NO2/c4-1-3(6)2-5/h3,5-6H,1-2,4H2","KQIGMPWTAHJUMN-UHFFFAOYSA-N","?","25","mean from 2","a1/apparent","?","basic",9.3
"14592","NC12(CCC(C1)C2)","NC12CC(C1)CC2","InChI=1S/C6H11N/c7-6-2-1-5(3-6)4-6/h5H,1-4,7H2","LJSGYBIBMRMMTK-UHFFFAOYSA-N","?","25","potentiometric","b1/apparent","?","basic",9.3
"14524","OC1(=CC=C(CC(N)C)C=C1)","CC(N)CC1C=CC(O)=CC=1","InChI=1S/C9H13NO/c1-7(10)6-8-2-4-9(11)5-3-8/h2-5,7,11H,6,10H2,1H3","GIKNHHRFLCDOEU-UHFFFAOYSA-N","?","25","potentiometric","b/apparent","?","basic",9.3
"15833","O=C(OC1(=C(OC)C=CC3(=C1C24(C(CCC(C2)OC)C(C3)N(C)CC4))))C","CN1CCC23CC(CCC2C1CC1C=CC(OC)=C(OC(=C)O)C3=1)OC","InChI=1S/C21H29NO4/c1-13(23)26-20-18(25-4)8-5-14-11-17-16-7-6-15(24-3)12-21(16,19(14)20)9-10-22(17)2/h5,8,15-17,23H,1,6-7,9-12H2,2-4H3","HBCHXVOCUXLXIG-UHFFFAOYSA-N","?",,"potentiometric","a/apparent","NH%+&","basic",9.31
"14518","OC(C1(=CC=CC=C1))CNC","CNCC(O)C1C=CC=CC=1","InChI=1S/C9H13NO/c1-10-7-9(11)8-5-3-2-4-6-8/h2-6,9-11H,7H2,1H3","ZCTYHONEGJTYQV-UHFFFAOYSA-N","?",,"potentiometric","a/apparent","?","basic",9.31
"14105","S(C(C)C)CCN(CC)CC","CC(C)SCCN(CC)CC","InChI=1S/C9H21NS/c1-5-10(6-2)7-8-11-9(3)4/h9H,5-8H2,1-4H3","KRFVDDAHFSUPDL-UHFFFAOYSA-N","?","17","potentiometric","b/apparent","?","basic",9.32
"16657","N=1(C=2(C(C(NCCCN(CC)CC)=CC=1)=CC=CC=2))","CCN(CCCNC1=CC=NC2=CC=CC=C21)CC","InChI=1S/C16H23N3/c1-3-19(4-2)13-7-11-17-16-10-12-18-15-9-6-5-8-14(15)16/h5-6,8-10,12H,3-4,7,11,13H2,1-2H3,(H,17,18)","RFSFFVMXAWIPCO-UHFFFAOYSA-N","?, ?","25","potentiometric","a1/apparent","?, ?","basic",9.325
"13350","O1(C(=NCCC1)NC2(=CC=CC=C2))","C1CCOC(NC2C=CC=CC=2)=N1","InChI=1S/C10H12N2O/c1-2-5-9(6-3-1)12-10-11-7-4-8-13-10/h1-3,5-6H,4,7-8H2,(H,11,12)","DEGOJTIJRHPLRR-UHFFFAOYSA-N","?","20",,"a1/apparent","NH(+)","basic",9.33
"11889","O=C([O-])C(N)CCC(=O)[O-]","N=C(CC=C(O)O)C(O)O","InChI=1S/C5H9NO4/c6-3(5(9)10)1-2-4(7)8/h2,5-10H,1H2","IMBDOXOKEZZFCF-UHFFFAOYSA-N","?","40",,"a2/apparent","NH2","basic",9.33
"11333","OC(CN(C(C)C)CC(O)C)C","CC(C)N(CC(C)O)CC(C)O","InChI=1S/C9H21NO2/c1-7(2)10(5-8(3)11)6-9(4)12/h7-9,11-12H,5-6H2,1-4H3","BJRXTJPSWZNCIV-UHFFFAOYSA-N","?","25","potentiometric","b1/apparent","?","basic",9.33
"15200","O=C(NCCCN(CC=C)CC=C)C=N[O-]","C=CCN(CC=C)CCCNC(=O)CN=O","InChI=1S/C11H19N3O2/c1-3-7-14(8-4-2)9-5-6-12-11(15)10-13-16/h3-4H,1-2,5-10H2,(H,12,15)","VSPYOASUXJWCQA-UHFFFAOYSA-N","?","25","potentiometric","a2/apparent","?","basic",9.34
"13574","O(C1(=CC=C(N=CN(C)C)C=C1))C","COC1C=CC(=CC=1)N=CN(C)C","InChI=1S/C10H14N2O/c1-12(2)8-11-9-4-6-10(13-3)7-5-9/h4-8H,1-3H3","KEHWKNJZSFYKEM-UHFFFAOYSA-N","?","25","potentiometric","a1/apparent","N=C-H","basic",9.35
"11048","N2(C1(CCNCC1))(CCCCC2)","C1CC(CCN1)N1CCCCC1","InChI=1S/C10H20N2/c1-2-8-12(9-3-1)10-4-6-11-7-5-10/h10-11H,1-9H2","QDVBKXJMLILLLB-UHFFFAOYSA-N","?, ?","22","potentiometric","a1/apparent","?, ?","basic",9.35
"16843","ClC2(=CC1(=NC(=CC(=C1C=C2)NC(CCCN(CC)CC)C)C))","CC1=CC(NC(C)CCCN(CC)CC)=C2C=CC(Cl)=CC2=N1","InChI=1S/C19H28ClN3/c1-5-23(6-2)11-7-8-14(3)21-18-12-15(4)22-19-13-16(20)9-10-17(18)19/h9-10,12-14H,5-8,11H2,1-4H3,(H,21,22)","GYFRJEFMZQFVLO-UHFFFAOYSA-N","?, ?","30","potentiometric","a1/apparent","?, ?","basic",9.35
"13111","OC1(C(N)CCCCC1)","NC1CCCCCC1O","InChI=1S/C7H15NO/c8-6-4-2-1-3-5-7(6)9/h6-7,9H,1-5,8H2","ZWOFTVSNNFYPAB-UHFFFAOYSA-N","?","25","potentiometric","b/thermodynamic","?","basic",9.35
"12043","S1(C(=CC=C1)C2(NCCC2))","C1CCC(N1)C1=CC=CS1","InChI=1S/C8H11NS/c1-3-7(9-5-1)8-4-2-6-10-8/h2,4,6-7,9H,1,3,5H2","BNUVOMNEUJWHCF-UHFFFAOYSA-N","?",,"potentiometric","b/apparent","?","basic",9.35
"13217","OC(CN(C(C)(C)C)CC(O)C)C","CC(C)(C)N(CC(C)O)CC(C)O","InChI=1S/C10H23NO2/c1-8(12)6-11(7-9(2)13)10(3,4)5/h8-9,12-13H,6-7H2,1-5H3","PCRSGENJQANRNB-UHFFFAOYSA-N","?","25","mean from 2","b1/apparent","?","basic",9.36