"Molecule name","OriginalSmiles","Canonical_QSARr","InChI_Code_QSARr","InChI Key_QSARr","Salt_Solvent (Concatenate)","temp","method","type","group","basicOrAcidic","pKa"
"17322","N=1(NC=CC=1N)","NC1C=CNN=1","InChI=1S/C3H5N3/c4-3-1-2-5-6-3/h1-2H,(H3,4,5,6)","JVVRJMXHNUAPHW-UHFFFAOYSA-N","?","25","potentiometric","a1/apparent","NH+","basic",4.11
"10086","N1(=NC=C(C)C=C1C)","CC1C=C(C)N=NC=1","InChI=1S/C6H8N2/c1-5-3-6(2)8-7-4-5/h3-4H,1-2H3","VUVAQWSLVHOLPS-UHFFFAOYSA-N","?","17.5","potentiometric","a/apparent","?","basic",4.11
"13427","ClC=2(C=1(C(=NC=CC=1)C(OC)=CC=2))","COC1=CC=C(Cl)C2=CC=CN=C12","InChI=1S/C10H8ClNO/c1-13-9-5-4-8(11)7-3-2-6-12-10(7)9/h2-6H,1H3","YZCSDQVSXILXPK-UHFFFAOYSA-N","?","25","spectrophotometric","a1/apparent","H+ of NH+","basic",4.13
"11961","N=2(C1(=NC=CN=C1C=NC=2))","C1=NC=NC2=NC=CN=C21","InChI=1S/C6H4N4/c1-2-9-6-5(8-1)3-7-4-10-6/h1-4H","CPNGPNLZQNNVQM-UHFFFAOYSA-N","?","24","mean from 2","a/apparent","?","basic",4.13
"10077","N1(=NC=C(C)C(=C1)C)","CC1=CN=NC=C1C","InChI=1S/C6H8N2/c1-5-3-7-8-4-6(5)2/h3-4H,1-2H3","XVGNFWZFFMUSPR-UHFFFAOYSA-N","?","16","potentiometric","a/apparent","?","basic",4.13
"11742","O(C1(=CC(N)=CC=C1))CC","CCOC1C=CC=C(N)C=1","InChI=1S/C8H11NO/c1-2-10-8-5-3-4-7(9)6-8/h3-6H,2,9H2,1H3","WEZAHYDFZNTGKE-UHFFFAOYSA-N","?","25","mean from 2","a1/apparent","NH3(+)","basic",4.15
"16328","N3(=C(NCC1(=CC=CC=C1))C2(=C(NN=C2)N=C3))","C(NC1=NC=NC2NN=CC1=2)C1C=CC=CC=1","InChI=1S/C12H11N5/c1-2-4-9(5-3-1)6-13-11-10-7-16-17-12(10)15-8-14-11/h1-5,7-8H,6H2,(H2,13,14,15,16,17)","NNSLOBNGHHXORI-UHFFFAOYSA-N","?","20","spectrophotometric","a1/apparent","?","basic",4.16
"13316","S1(C(=NC=C1SC2(=CC=CC=C2))N)","NC1=NC=C(S1)SC1C=CC=CC=1","InChI=1S/C9H8N2S2/c10-9-11-6-8(13-9)12-7-4-2-1-3-5-7/h1-6H,(H2,10,11)","ZUAYQPHREWPVLR-UHFFFAOYSA-N","?","25","spectrophotometric","a1/thermodynamic","?","basic",4.16
"16704","O3(C(N2(C1(=C(C=C(C)C=C1)N=C2)))C(O)C(O)C(C3)O)","CC1=CC2N=CN(C3OCC(O)C(O)C3O)C=2C=C1","InChI=1S/C13H16N2O4/c1-7-2-3-9-8(4-7)14-6-15(9)13-12(18)11(17)10(16)5-19-13/h2-4,6,10-13,16-18H,5H2,1H3","MTEIIMUEMOUYFA-UHFFFAOYSA-N","?","25","potentiometric","a/apparent","?","basic",4.17
"15867","S(=O)(=O)(NC3(=CC(OC)=C(C=1(N=C2(N=CC=CN2(C=1))))C=C3))C","COC1C=C(C=CC=1C1=CN2C=CC=NC2=N1)NS(C)(=O)=O","InChI=1S/C14H14N4O3S/c1-21-13-8-10(17-22(2,19)20)4-5-11(13)12-9-18-7-3-6-15-14(18)16-12/h3-9,17H,1-2H3","QUFCVOCSVTZMSF-UHFFFAOYSA-N","?","25",,"a1/apparent","?","basic",4.17
"12887","N1(=NC=C(CC)C=C1C)","CC1=CC(CC)=CN=N1","InChI=1S/C7H10N2/c1-3-7-4-6(2)9-8-5-7/h4-5H,3H2,1-2H3","OYLPFRVXYIMXQK-UHFFFAOYSA-N","?","17","potentiometric","a/apparent","?","basic",4.17
"10628","O(C1(=NC(N)=C(C#N)C(=C1)N))C","COC1C=C(N)C(C#N)=C(N)N=1","InChI=1S/C7H8N4O/c1-12-6-2-5(9)4(3-8)7(10)11-6/h2H,1H3,(H4,9,10,11)","RTXAXAWUTABNJL-UHFFFAOYSA-N","?","25","spectrophotometric","a1/apparent","?","basic",4.17
"11620","N(C1(=CC=CC=C1))CC=C","C=CCNC1C=CC=CC=1","InChI=1S/C9H11N/c1-2-8-10-9-6-4-3-5-7-9/h2-7,10H,1,8H2","LQFLWKPCQITJIH-UHFFFAOYSA-N","?","25","potentiometric","b/apparent","?","basic",4.17
"10386","N#CCN(CC)CC","CCN(CC#N)CC","InChI=1S/C6H12N2/c1-3-8(4-2)6-5-7/h3-4,6H2,1-2H3","LVPZSMIBSMMLPI-UHFFFAOYSA-N","?","25","mean from 3","a1/apparent","?","basic",4.18
"15692","S(=O)(=O)(NC1(=CN=C(N)C=C1))C2(=CC=C(N)C=C2)","NC1C=CC(=CC=1)S(=O)(=O)NC1=CN=C(N)C=C1","InChI=1S/C11H12N4O2S/c12-8-1-4-10(5-2-8)18(16,17)15-9-3-6-11(13)14-7-9/h1-7,15H,12H2,(H2,13,14)","LVQULDWBTMQSCU-UHFFFAOYSA-N","?",,"potentiometric","b1/apparent","?","basic",4.19
"15016","N2(=C(N)C=1(N=CN(C=1N=C2)C3(CCCCC3)))","NC1=NC=NC2=C1N=CN2C1CCCCC1","InChI=1S/C11H15N5/c12-10-9-11(14-6-13-10)16(7-15-9)8-4-2-1-3-5-8/h6-8H,1-5H2,(H2,12,13,14)","FRZBEYVOLNQETR-UHFFFAOYSA-N","?",,,"a/apparent","?","basic",4.19
"13368","N(C=1(C=2(C(C=CC=1)=CC=CC=2)))CC","CCNC1=CC=CC2=CC=CC=C21","InChI=1S/C12H13N/c1-2-13-12-9-5-7-10-6-3-4-8-11(10)12/h3-9,13H,2H2,1H3","KDFFXYVOTKKBDI-UHFFFAOYSA-N","?","29",,"a/thermodynamic","H%+&","basic",4.19
"10764","S(CC1(=NC(=CC=C1)CSC))C","CSCC1C=CC=C(CSC)N=1","InChI=1S/C9H13NS2/c1-11-6-8-4-3-5-9(10-8)7-12-2/h3-5H,6-7H2,1-2H3","RAICPCFODOXJBO-UHFFFAOYSA-N","?","25","spectrophotometric","a1/apparent","?","basic",4.19
"15018","N3(=C(NC1(CCCCC1))C=2(NC=NC=2N=C3))","C1CCCCC1NC1=NC=NC2N=CNC=21","InChI=1S/C11H15N5/c1-2-4-8(5-3-1)16-11-9-10(13-6-12-9)14-7-15-11/h6-8H,1-5H2,(H2,12,13,14,15,16)","YEWYVRQMZKOENB-UHFFFAOYSA-N","?",,,"a1/apparent","?","basic",4.2
"13414","OC2(=C(C1(=NC=CC=C1))C=CC=C2)","OC1C=CC=CC=1C1C=CC=CN=1","InChI=1S/C11H9NO/c13-11-7-2-1-5-9(11)10-6-3-4-8-12-10/h1-8,13H","HPDNGBIRSIWOST-UHFFFAOYSA-N","?","20","potentiometric","a1/apparent","prot.","basic",4.2
"15162","N(C1(=C(N)C=C(C)C=C1))=C2(C=CC(=N)C=C2)","CC1=CC(N)=C(C=C1)N=C1C=CC(=N)C=C1","InChI=1S/C13H13N3/c1-9-2-7-13(12(15)8-9)16-11-5-3-10(14)4-6-11/h2-8,14H,15H2,1H3","SURGMNFECSMXFC-UHFFFAOYSA-N","?","30","spectrophotometric","a1/apparent","?","basic",4.2
"15565","N3(=C(NCCC1(=CC=CC=C1))C=2(NC=NC=2N=C3))","C(CNC1=NC=NC2N=CNC=21)C1C=CC=CC=1","InChI=1S/C13H13N5/c1-2-4-10(5-3-1)6-7-14-12-11-13(16-8-15-11)18-9-17-12/h1-5,8-9H,6-7H2,(H2,14,15,16,17,18)","GPGPFPKQCMKMDY-UHFFFAOYSA-N","?",,,"a1/apparent","?","basic",4.2
"15527","O3(CCN(C2(=CC=C(N1(CCOCC1))C=C2))CC3)","C1COCCN1C1C=CC(=CC=1)N1CCOCC1","InChI=1S/C14H20N2O2/c1-2-14(16-7-11-18-12-8-16)4-3-13(1)15-5-9-17-10-6-15/h1-4H,5-12H2","OBUZMRRVPUXPPZ-UHFFFAOYSA-N","?","25",,"a1/apparent","N-H","basic",4.2
"14586","[O-]C1(=[N+](C=CC(=N1)N(C)C)C)","CN(C)C1=CC=[N+](C)C(O)=N1","InChI=1S/C7H11N3O/c1-9(2)6-4-5-10(3)7(11)8-6/h4-5H,1-3H3/p+1","DHGBSOMRGXWRSE-UHFFFAOYSA-O","?",,,"a/apparent","?","basic",4.2
"17094","O=C(C1(=CC=CC=C1))CC2(=NC=CC=C2)","OC(=CC1C=CC=CN=1)C1C=CC=CC=1","InChI=1S/C13H11NO/c15-13(11-6-2-1-3-7-11)10-12-8-4-5-9-14-12/h1-10,15H","IXQUHMXYFKDBDA-UHFFFAOYSA-N","?, ?, ?","25","mean from 2","a1/apparent","?, ?, ?","basic",4.206666666666667
"17120","N2(=C(NCCCC)C1(=C(N(C)N=C1)N=C2))","CCCCNC1=NC=NC2=C1C=NN2C","InChI=1S/C10H15N5/c1-3-4-5-11-9-8-6-14-15(2)10(8)13-7-12-9/h6-7H,3-5H2,1-2H3,(H,11,12,13)","KUBQKMWSFYWNRE-UHFFFAOYSA-N","?","20","spectrophotometric","a/apparent","?","basic",4.22
"11781","ClC1(=CC=C(CON)C=C1)","NOCC1C=CC(Cl)=CC=1","InChI=1S/C7H8ClNO/c8-7-3-1-6(2-4-7)5-10-9/h1-4H,5,9H2","GONDHKVGJCQJPR-UHFFFAOYSA-N","?","25","potentiometric","a1/apparent","?","basic",4.22
"12539","N2(=C(NC(C)C)C1(=C(N(C)N=C1)N=C2))","CC(C)NC1=NC=NC2=C1C=NN2C","InChI=1S/C9H13N5/c1-6(2)13-8-7-4-12-14(3)9(7)11-5-10-8/h4-6H,1-3H3,(H,10,11,13)","QCNKANMXWVTKBH-UHFFFAOYSA-N","?","20","spectrophotometric","a/apparent","?","basic",4.22
"17901","N=1(N(C(N)=CC=1)C)","CN1N=CC=C1N","InChI=1S/C4H7N3/c1-7-4(5)2-3-6-7/h2-3H,5H2,1H3","JESRNIJXVIFVOV-UHFFFAOYSA-N","?","25","potentiometric","a1/apparent","NH+","basic",4.23
"13129","O(C1(=CC(N)=CC=C1))C","COC1C=CC=C(N)C=1","InChI=1S/C7H9NO/c1-9-7-4-2-3-6(8)5-7/h2-5H,8H2,1H3","NCBZRJODKRCREW-UHFFFAOYSA-N","?","23","mean from 5","a1/apparent","-NH3(1+)","basic",4.23
"13676","O(CCNC1(=CC(=CC=C1)C))CC","CC1C=C(C=CC=1)NCCOCC","InChI=1S/C11H17NO/c1-3-13-8-7-12-11-6-4-5-10(2)9-11/h4-6,9,12H,3,7-8H2,1-2H3","DNQVTOOIVZMJMO-UHFFFAOYSA-N","?","24.9","spectrophotometric","a1/apparent","NH","basic",4.24
"13415","O(C1(=CN=CC=C1))C2(=CC=CC=C2)","C1N=CC=CC=1OC1C=CC=CC=1","InChI=1S/C11H9NO/c1-2-5-10(6-3-1)13-11-7-4-8-12-9-11/h1-9H","KDGUIKPOZGYLQJ-UHFFFAOYSA-N","?","25","spectrophotometric","a1/apparent","?","basic",4.24
"11931","N#CCCN(CCC#N)C","CN(CCC#N)CCC#N","InChI=1S/C7H11N3/c1-10(6-2-4-8)7-3-5-9/h2-3,6-7H2,1H3","NPMCIHCQSNHBDX-UHFFFAOYSA-N","?","25","potentiometric","a1/apparent","?","basic",4.24
"11242","N2(=C(NC)C1(=C(N(C)N=C1)N=C2))","CN1N=CC2C(NC)=NC=NC1=2","InChI=1S/C7H9N5/c1-8-6-5-3-11-12(2)7(5)10-4-9-6/h3-4H,1-2H3,(H,8,9,10)","KOTSAGHCUMHESG-UHFFFAOYSA-N","?","20","spectrophotometric","a/apparent","?","basic",4.24
"13436","N2(=C(NCC)C1(=C(N(C)N=C1)N=C2))","CCNC1=NC=NC2=C1C=NN2C","InChI=1S/C8H11N5/c1-3-9-7-6-4-12-13(2)8(6)11-5-10-7/h4-5H,3H2,1-2H3,(H,9,10,11)","USRVGNHEIXGHPP-UHFFFAOYSA-N","?","20","spectrophotometric","a/apparent","?","basic",4.24
"16995","S(C1(=CC=C(N)C=C1))C2(=CC=C(N)C=C2)","NC1C=CC(=CC=1)SC1C=CC(N)=CC=1","InChI=1S/C12H12N2S/c13-9-1-5-11(6-2-9)15-12-7-3-10(14)4-8-12/h1-8H,13-14H2","ICNFHJVPAJKPHW-UHFFFAOYSA-N","?","20","NMR","a1/apparent","NH2","basic",4.25
"16019","N=2(C1(=C3(C(=CC=C1C=CC=2)C=CC=C3)))","C1=CC=CC2=CC=C3C=CC=NC3=C21","InChI=1S/C13H9N/c1-2-6-12-10(4-1)7-8-11-5-3-9-14-13(11)12/h1-9H","WZJYKHNJTSNBHV-UHFFFAOYSA-N","?","20","spectrophotometric","a1/apparent","NH+","basic",4.25
"11680","[Br]C1(=CC=C(N(C)C)C=C1)","CN(C)C1C=CC(Br)=CC=1","InChI=1S/C8H10BrN/c1-10(2)8-5-3-7(9)4-6-8/h3-6H,1-2H3","XYZWMVYYUIMRIZ-UHFFFAOYSA-N","?","20","mean from 2","a/thermodynamic","?","basic",4.25
"11503","N1(=NC(=CC=C1CCC)C)","CC1=CC=C(CCC)N=N1","InChI=1S/C8H12N2/c1-3-4-8-6-5-7(2)9-10-8/h5-6H,3-4H2,1-2H3","SWPLDFWTMYFSHM-UHFFFAOYSA-N","?","17.5","potentiometric","a/apparent","?","basic",4.25
"10814","O=C(OCC)CC1(=NC=CC=C1)","CCOC(O)=CC1C=CC=CN=1","InChI=1S/C9H11NO2/c1-2-12-9(11)7-8-5-3-4-6-10-8/h3-7,11H,2H2,1H3","HYFRPDGRBMHWDD-UHFFFAOYSA-N","?","25","spectrophotometric","a/apparent","?","basic",4.25
"12536","N2(=C(NCCC)C1(=C(N(C)N=C1)N=C2))","CCCNC1=NC=NC2=C1C=NN2C","InChI=1S/C9H13N5/c1-3-4-10-8-7-5-13-14(2)9(7)12-6-11-8/h5-6H,3-4H2,1-2H3,(H,10,11,12)","JPVMCSXKFPMWDB-UHFFFAOYSA-N","?","20","spectrophotometric","a/apparent","?","basic",4.25
"10755","N(C1(=CC=CC=C1))C(C#C)(C)C","CC(C)(C#C)NC1C=CC=CC=1","InChI=1S/C11H13N/c1-4-11(2,3)12-10-8-6-5-7-9-10/h1,5-9,12H,2-3H3","REHYMUARMNSKGV-UHFFFAOYSA-N","?","25","potentiometric","b/apparent","?","basic",4.26
"13361","NC2(=CC(C1(=CC=CC=C1))=CC=C2)","NC1=CC(=CC=C1)C1C=CC=CC=1","InChI=1S/C12H11N/c13-12-8-4-7-11(9-12)10-5-2-1-3-6-10/h1-9H,13H2","MUNOBADFTHUUFG-UHFFFAOYSA-N","?","17","potentiometric","a/apparent","?","basic",4.28
"10833","O(CCNC1(=CC(=CC=C1)C))C","CC1C=C(C=CC=1)NCCOC","InChI=1S/C10H15NO/c1-9-4-3-5-10(8-9)11-6-7-12-2/h3-5,8,11H,6-7H2,1-2H3","OGXBDPVULQEBSG-UHFFFAOYSA-N","?","24.9","spectrophotometric","a1/apparent","NH","basic",4.29
"13449","OCCN1(N=CC=2(C1=NC=NC=2N))","NC1N=CN=C2C=1C=NN2CCO","InChI=1S/C7H9N5O/c8-6-5-3-11-12(1-2-13)7(5)10-4-9-6/h3-4,13H,1-2H2,(H2,8,9,10)","YCGHVLOMTHSSAN-UHFFFAOYSA-N","?","20","spectrophotometric","a/apparent","?","basic",4.29
"13908","N2(C1(=CC=CC=C1))(CCCC2)","C1CCCN1C1C=CC=CC=1","InChI=1S/C10H13N/c1-2-6-10(7-3-1)11-8-4-5-9-11/h1-3,6-7H,4-5,8-9H2","VDQQJMHXZCMNMU-UHFFFAOYSA-N","?",,"potentiometric","b/apparent","?","basic",4.3
"14391","NC1(=C(C(=CC(=C1C)C)C)C)","CC1=CC(C)=C(C)C(N)=C1C","InChI=1S/C10H15N/c1-6-5-7(2)9(4)10(11)8(6)3/h5H,11H2,1-4H3","ZCZPJZYQBNOPLT-UHFFFAOYSA-N","?","25","potentiometric","a/apparent","?","basic",4.3
"17275","N=1(NC=NC=1N)","NC1N=CNN=1","InChI=1S/C2H4N4/c3-2-4-1-5-6-2/h1H,(H3,3,4,5,6)","KLSJWNVTNUYHDU-UHFFFAOYSA-N","?","25","mean from 2","a1/apparent","?","basic",4.3
"12918","ClC1(=CC(N)=C(N)C=C1)","NC1C=C(Cl)C=CC=1N","InChI=1S/C6H7ClN2/c7-4-1-2-5(8)6(9)3-4/h1-3H,8-9H2","BXIXXXYDDJVHDL-UHFFFAOYSA-N","?","25","potentiometric","a/apparent","?","basic",4.3
"11988","N1(=NC=CC2(=C1CCCC2))","C1CCCC2N=NC=CC=21","InChI=1S/C8H10N2/c1-2-4-8-7(3-1)5-6-9-10-8/h5-6H,1-4H2","ZHWMMBNNMMYAIB-UHFFFAOYSA-N","?","17","potentiometric","a/apparent","?","basic",4.3
"11223","O1(C(O)C=2(C(O)=C(C)N=CC=2(C1)))","CC1N=CC2COC(O)C=2C=1O","InChI=1S/C8H9NO3/c1-4-7(10)6-5(2-9-4)3-12-8(6)11/h2,8,10-11H,3H2,1H3","MUYYNBSOIUTQPC-UHFFFAOYSA-N","?","20","spectrophotometric","a2/apparent","?","basic",4.3
"13942","OC=1(C=NC2(=CC=CC=C2(C=1)))","OC1=CC2=CC=CC=C2N=C1","InChI=1S/C9H7NO/c11-8-5-7-3-1-2-4-9(7)10-6-8/h1-6,11H","IQQDNMHUOLMLNJ-UHFFFAOYSA-N","?","20","potentiometric","a1/apparent","?","basic",4.3
"15070","NC2(=CC(=C(C1(=C(C=C(N)C=C1)C))C=C2)C)","CC1C=C(N)C=CC=1C1C=CC(N)=CC=1C","InChI=1S/C14H16N2/c1-9-7-11(15)3-5-13(9)14-6-4-12(16)8-10(14)2/h3-8H,15-16H2,1-2H3","QYIMZXITLDTULQ-UHFFFAOYSA-N","?, ?","25","potentiometric","a2/apparent","?, ?","basic",4.300000000000001
"12382","NC2(=CC=C(C1(=CC=C(N)C=C1))C=C2)","NC1C=CC(=CC=1)C1C=CC(N)=CC=1","InChI=1S/C12H12N2/c13-11-5-1-9(2-6-11)10-3-7-12(14)8-4-10/h1-8H,13-14H2","HFACYLZERDEVSX-UHFFFAOYSA-N","?, ?","25","mean from 7","a1/apparent","NH2, ?","basic",4.3100000000000005
"16541","O3(C(N2(C1(=C(C=C(C)C=C1)N=C2)))C(O)C(O)C(C3CO)O)","CC1=CC2N=CN(C3OC(CO)C(O)C(O)C3O)C=2C=C1","InChI=1S/C14H18N2O5/c1-7-2-3-9-8(4-7)15-6-16(9)14-13(20)12(19)11(18)10(5-17)21-14/h2-4,6,10-14,17-20H,5H2,1H3","YWLOUJJAGYCAQJ-UHFFFAOYSA-N","?","25","potentiometric","a/apparent","?","basic",4.32
"17790","N=1(NC(C)=CC=1C)","CC1=CC(C)=NN1","InChI=1S/C5H8N2/c1-4-3-5(2)7-6-4/h3H,1-2H3,(H,6,7)","SDXAWLJRERMRKF-UHFFFAOYSA-N","?","20","mean from 2","a1/apparent","?","basic",4.32
"13833","N2(=CC(C=1(NC=CC=1))=CC=C2)","C1=NC=CC=C1C1=CC=CN1","InChI=1S/C9H8N2/c1-3-8(7-10-5-1)9-4-2-6-11-9/h1-7,11H","CBTWKRLUNDZXIF-UHFFFAOYSA-N","?","24",,"b/apparent","?","basic",4.32
"13839","ClC1(=C(F)C=C2(N=CNC2(=C1)))","FC1C=C2N=CNC2=CC=1Cl","InChI=1S/C7H4ClFN2/c8-4-1-6-7(2-5(4)9)11-3-10-6/h1-3H,(H,10,11)","YITVVUARATZCAT-UHFFFAOYSA-N","?","25","potentiometric","a1/apparent","N(+)-H","basic",4.33
"11071","S1(C(=NC=C1)NC2(=CC=CC=C2))","C1=CC=CC=C1NC1=NC=CS1","InChI=1S/C9H8N2S/c1-2-4-8(5-3-1)11-9-10-6-7-12-9/h1-7H,(H,10,11)","OGVGQYZRJXSMGC-UHFFFAOYSA-N","?","25","spectrophotometric","a1/thermodynamic","?","basic",4.33
"11582","O=C(N)CC1(=NC=CC=C1)","N=C(O)CC1=CC=CC=N1","InChI=1S/C7H8N2O/c8-7(10)5-6-3-1-2-4-9-6/h1-4H,5H2,(H2,8,10)","UXVCEKRAZBZVSL-UHFFFAOYSA-N","?","25","potentiometric","a1/apparent","?","basic",4.34
"13120","O(N)CC1(=CC=CC=C1)","NOCC1C=CC=CC=1","InChI=1S/C7H9NO/c8-9-6-7-4-2-1-3-5-7/h1-5H,6,8H2","XYEOALKITRFCJJ-UHFFFAOYSA-N","?","25","potentiometric","a1/apparent","?","basic",4.34
"12083","N=1(NC=2(C=C(N)C=CC=2(C=1)))","NC1=CC2NN=CC=2C=C1","InChI=1S/C7H7N3/c8-6-2-1-5-4-9-10-7(5)3-6/h1-4H,8H2,(H,9,10)","KEJFADGISRFLFO-UHFFFAOYSA-N","?, ?","24.9","spectrophotometric","a1/apparent","-NH3(+), -NH3(+)","basic",4.355
"15994","N=3(C=1(C(=CC=C2(C=1N(C=C2)C))C=CC=3))","CN1C=CC2=CC=C3C=CC=NC3=C12","InChI=1S/C12H10N2/c1-14-8-6-10-5-4-9-3-2-7-13-11(9)12(10)14/h2-8H,1H3","SKUUPRPQPZUFQL-UHFFFAOYSA-N","?","25","potentiometric","a1/thermodynamic","NH","basic",4.36
"11097","OCC1(=NC=2(C=CC=CC=2(N1C)))","CN1C(CO)=NC2C=CC=CC1=2","InChI=1S/C9H10N2O/c1-11-8-5-3-2-4-7(8)10-9(11)6-12/h2-5,12H,6H2,1H3","SQRSIOZFPSFABI-UHFFFAOYSA-N","?","298",,"a1/apparent","N(+)-H","basic",4.36
"11633","NC1(=C(C=CC=C1)CCC)","CCCC1C=CC=CC=1N","InChI=1S/C9H13N/c1-2-5-8-6-3-4-7-9(8)10/h3-4,6-7H,2,5,10H2,1H3","WKURVXXDGMYSDP-UHFFFAOYSA-N","?","25","potentiometric","a/apparent","?","basic",4.36
"12997","NC1(=C(C=CC=C1)CC)","CCC1C=CC=CC=1N","InChI=1S/C8H11N/c1-2-7-5-3-4-6-8(7)9/h3-6H,2,9H2,1H3","MLPVBIWIRCKMJV-UHFFFAOYSA-N","?","25","potentiometric","a/apparent","?","basic",4.37
"11634","NC1(=C(C=C(C)C=C1C)C)","CC1C=C(C)C=C(C)C=1N","InChI=1S/C9H13N/c1-6-4-7(2)9(10)8(3)5-6/h4-5H,10H2,1-3H3","KWVPRPSXBZNOHS-UHFFFAOYSA-N","?","25","mean from 2","a/thermodynamic","?","basic",4.37
"12948","OC1(=C(N)C=C(N)C=C1)","NC1=CC(N)=C(O)C=C1","InChI=1S/C6H8N2O/c7-4-1-2-6(9)5(8)3-4/h1-3,9H,7-8H2","XIWMTQIUUWJNRP-UHFFFAOYSA-N","?, ?","20","spectrophotometric","a2/apparent","?, ?","basic",4.375
"17201","OC3(=CC=2(C(=C1(C(C=CC=C1)=NC=2))C=C3))","OC1=CC2=CN=C3C=CC=CC3=C2C=C1","InChI=1S/C13H9NO/c15-10-5-6-11-9(7-10)8-14-13-4-2-1-3-12(11)13/h1-8,15H","FHBPTNGPNJRXRD-UHFFFAOYSA-N","?","20","spectrophotometric","a1/apparent","?","basic",4.39
"15650","N=3(C=2(C(=C1(C(C=CC=C1)=CC=2))C=C4(C=3C=CC=C4)))","C1C2C(=CC=C3C=CC=CC3=2)N=C2C=CC=CC2=1","InChI=1S/C17H11N/c1-3-7-14-12(5-1)9-10-17-15(14)11-13-6-2-4-8-16(13)18-17/h1-11H","JEGZRTMZYUDVBF-UHFFFAOYSA-N","?","24","mean from 2","a/apparent","NH+","basic",4.39
"11679","ClC1(=CC=C(N(C)C)C=C1)","CN(C)C1C=CC(Cl)=CC=1","InChI=1S/C8H10ClN/c1-10(2)8-5-3-7(9)4-6-8/h3-6H,1-2H3","IONGEXNDPXANJD-UHFFFAOYSA-N","?","20","spectrophotometric","a/thermodynamic","?","basic",4.39
"17167","N=2(C1(=C(N)C=CC=C1C=C3(C=2C=CC=C3)))","NC1C=CC=C2C=C3C=CC=CC3=NC2=1","InChI=1S/C13H10N2/c14-11-6-3-5-10-8-9-4-1-2-7-12(9)15-13(10)11/h1-8H,14H2","QWAGALBSTFENEE-UHFFFAOYSA-N","?","20","spectrophotometric","a/apparent","?","basic",4.4
"15069","NC2(=CC(C1(=C(C=CC(=C1)N)C))=C(C)C=C2)","CC1C=CC(N)=CC=1C1C=C(N)C=CC=1C","InChI=1S/C14H16N2/c1-9-3-5-11(15)7-13(9)14-8-12(16)6-4-10(14)2/h3-8H,15-16H2,1-2H3","FENHXLUKSWNISV-UHFFFAOYSA-N","?, ?","25","potentiometric","a2/apparent","?, ?","basic",4.4
"15539","O=C(NC=3(C=1(C(=NC2(=CC=CC=C2(C=1)))C=CC=3)))C","C/C(/O)=N\C1=CC=CC2=NC3C=CC=CC=3C=C21","InChI=1S/C15H12N2O/c1-10(18)16-14-7-4-8-15-12(14)9-11-5-2-3-6-13(11)17-15/h2-9H,1H3,(H,16,18)","RUUVYPZLIPOVQK-UHFFFAOYSA-N","?","20","potentiometric","a/apparent","?","basic",4.4
"16873","O=C(C1(=CC=CC=C1))CC4(=NC3(=C2(N=CC=CC2=CC=C3C=C4)))","OC(=CC1C=CC2C=CC3C=CC=NC=3C=2N=1)C1C=CC=CC=1","InChI=1S/C20H14N2O/c23-18(14-5-2-1-3-6-14)13-17-11-10-16-9-8-15-7-4-12-21-19(15)20(16)22-17/h1-13,23H","WTEUFEBLVJHBEY-UHFFFAOYSA-N","?","25","spectrophotometric","a1/apparent","?","basic",4.4
"14801","N1(=CN(CCC[NH+](CCCCCCCCCCCCCCCC)CCCCCCCCCCCCCCCC)C=C1)","CCCCCCCCCCCCCCCCN(CCCN1C=NC=C1)CCCCCCCCCCCCCCCC","InChI=1S/C38H75N3/c1-3-5-7-9-11-13-15-17-19-21-23-25-27-29-33-40(35-31-36-41-37-32-39-38-41)34-30-28-26-24-22-20-18-16-14-12-10-8-6-4-2/h32,37-38H,3-31,33-36H2,1-2H3","GDOHGLSJDNNPAK-UHFFFAOYSA-N","?","20","potentiometric","a2/apparent","?","basic",4.4
"12005","FC2(=C1(N=CNC1=CC=C2))","FC1C=CC=C2NC=NC2=1","InChI=1S/C7H5FN2/c8-5-2-1-3-6-7(5)10-4-9-6/h1-4H,(H,9,10)","QUQMWOHZXVXIBI-UHFFFAOYSA-N","?",,"potentiometric","a/apparent","?","basic",4.4
"11758","O(N)CC1(=CC=C(C)C=C1)","CC1=CC=C(CON)C=C1","InChI=1S/C8H11NO/c1-7-2-4-8(5-3-7)6-10-9/h2-5H,6,9H2,1H3","MLWXTMVARHZBPA-UHFFFAOYSA-N","?","25","potentiometric","a1/apparent","?","basic",4.4
"11513","N#CC(N)C1(=CC=CC=C1)","NC(C#N)C1C=CC=CC=1","InChI=1S/C8H8N2/c9-6-8(10)7-4-2-1-3-5-7/h1-5,8H,10H2","JTIHSSVKTWPPHI-UHFFFAOYSA-N","?","20","potentiometric","a1/apparent","?","basic",4.4
"13370","N=1(C=2(C(C=C(C=1C)C)=CC=CC=2C))","CC1C=CC=C2C=C(C)C(C)=NC=12","InChI=1S/C12H13N/c1-8-5-4-6-11-7-9(2)10(3)13-12(8)11/h4-7H,1-3H3","SVBNPCUNVWUQOF-UHFFFAOYSA-N","?","25","potentiometric","b/apparent","?","basic",4.41
"11615","NC1(=C(C=CC=C1)C(C)C)","CC(C)C1C=CC=CC=1N","InChI=1S/C9H13N/c1-7(2)8-5-3-4-6-9(8)10/h3-7H,10H2,1-2H3","YKOLZVXSPGIIBJ-UHFFFAOYSA-N","?","25","potentiometric","a/apparent","?","basic",4.42
"15130","S(C(=N)C1(=CC=CC=C1))CC2(=CC=CC=C2)","N=C(SCC1C=CC=CC=1)C1C=CC=CC=1","InChI=1S/C14H13NS/c15-14(13-9-5-2-6-10-13)16-11-12-7-3-1-4-8-12/h1-10,15H,11H2","VUSXWPVCSGRKMO-UHFFFAOYSA-N","?","25",,"b/apparent","?","basic",4.43
"15378","O=[N+]([O-])C2(=C(NCCC[NH+](C)C)C=1(C(=CC=CC=1)N=C2))","CN(C)CCCNC1C(=CN=C2C=CC=CC2=1)[N+]([O-])=O","InChI=1S/C14H18N4O2/c1-17(2)9-5-8-15-14-11-6-3-4-7-12(11)16-10-13(14)18(19)20/h3-4,6-7,10H,5,8-9H2,1-2H3,(H,15,16)","WFSPOGPANMWXTP-UHFFFAOYSA-N","?","25","spectrophotometric","a1/apparent","?","basic",4.43
"11584","O=C(NC1(=CN=CC=C1))C","C/C(/O)=N\C1C=NC=CC=1","InChI=1S/C7H8N2O/c1-6(10)9-7-3-2-4-8-5-7/h2-5H,1H3,(H,9,10)","JVYIBLHBCPSTKF-UHFFFAOYSA-N","?","23","mean from 2","a/apparent","?","basic",4.44
"10227","S(C1(=CN=CC=C1))C","CSC1=CN=CC=C1","InChI=1S/C6H7NS/c1-8-6-3-2-4-7-5-6/h2-5H,1H3","AULOGPOZBOCNSX-UHFFFAOYSA-N","?","20","potentiometric","a/apparent","NH%+&","basic",4.45
"11698","O=CC1(=C(OC)C=NC=C1)","COC1C=NC=CC=1C=O","InChI=1S/C7H7NO2/c1-10-7-4-8-3-2-6(7)5-9/h2-5H,1H3","FZWFPBUTNZWBEM-UHFFFAOYSA-N","?","20","spectrophotometric","a1/apparent","?","basic",4.45
"11732","OB(O)C1(=CC(N)=CC=C1)","NC1C=C(C=CC=1)B(O)O","InChI=1S/C6H8BNO2/c8-6-3-1-2-5(4-6)7(9)10/h1-4,9-10H,8H2","JMZFEHDNIAQMNB-UHFFFAOYSA-N","?","25","potentiometric","apparent","NH3+","basic",4.46
"14354","O=C(NC1(=CC=C(N)C=C1))C","C/C(/O)=N\C1C=CC(N)=CC=1","InChI=1S/C8H10N2O/c1-6(11)10-8-4-2-7(9)3-5-8/h2-5H,9H2,1H3,(H,10,11)","CHMBIJAOCISYEW-UHFFFAOYSA-N","?","15","potentiometric","a/apparent","?","basic",4.46