"Molecule name","OriginalSmiles","Canonical_QSARr","InChI_Code_QSARr","InChI Key_QSARr","Salt_Solvent (Concatenate)","temp","method","type","group","basicOrAcidic","pKa"
"10744","NC(CCCC1(=CC=CC=C1))C","CC(N)CCCC1C=CC=CC=1","InChI=1S/C11H17N/c1-10(12)6-5-9-11-7-3-2-4-8-11/h2-4,7-8,10H,5-6,9,12H2,1H3","RFKNDRWCBBUQAB-UHFFFAOYSA-N","?","25","potentiometric","b/apparent","?","basic",9.99
"17149","N=C1(C3(=C(NC2(=C1C=CC=C2))C=CC=C3))","N=C1C2C=CC=CC=2NC2C=CC=CC=21","InChI=1S/C13H10N2/c14-13-9-5-1-3-7-11(9)15-12-8-4-2-6-10(12)13/h1-8H,(H2,14,15)","XJGFWWJLMVZSIG-UHFFFAOYSA-N","?","20","spectrophotometric","a/apparent","?","basic",9.99
"12206","O=C(C1(=CC(=C([O-])C=C1)CN(C)C))C","CN(C)CC1C=C(C=CC=1O)C(=C)O","InChI=1S/C11H15NO2/c1-8(13)9-4-5-11(14)10(6-9)7-12(2)3/h4-6,13-14H,1,7H2,2-3H3","SRJJZFUOJKNGAY-UHFFFAOYSA-N","?","25","potentiometric","a1/thermodynamic","OH","basic",10.0
"14907","O=C(OC1(=CC=CC=C1))CCCCN(C)C","CN(C)CCCC=C(O)OC1C=CC=CC=1","InChI=1S/C13H19NO2/c1-14(2)11-7-6-10-13(15)16-12-8-4-3-5-9-12/h3-5,8-10,15H,6-7,11H2,1-2H3","PWVJEKRBWXDYHR-UHFFFAOYSA-N","?","20","potentiometric","a1/apparent","NMe2","basic",10.0
"17567","OCCCN","NCCCO","InChI=1S/C3H9NO/c4-2-1-3-5/h5H,1-4H2","WUGQZFFCHPXWKQ-UHFFFAOYSA-N","?","23","mean from 6","b1/apparent","NH%+&","basic",10.0
"17755","N(N(C)C)=C(N)C","C/C(/N)=N/N(C)C","InChI=1S/C4H11N3/c1-4(5)6-7(2)3/h1-3H3,(H2,5,6)","UVCDMBDSNMBZHS-UHFFFAOYSA-N","?","25","potentiometric","a1/apparent","?","basic",10.0
"12686","OC(CNC(C)(C)C)C","CC(O)CNC(C)(C)C","InChI=1S/C7H17NO/c1-6(9)5-8-7(2,3)4/h6,8-9H,5H2,1-4H3","AYNBYSNISOAOHW-UHFFFAOYSA-N","?",,"potentiometric","a/apparent","prot.","basic",10.0
"13297","[O-]C2(=[N+](C=1(N=CN(C=1C(=N2)[O-])C))C)","CN1C=NC2C1=C(O)N=C(O)[N+]=2C","InChI=1S/C7H8N4O2/c1-10-3-8-5-4(10)6(12)9-7(13)11(5)2/h3H,1-2H3,(H,9,12,13)/p+1","YAPQBXQYLJRXSA-UHFFFAOYSA-O","?","25","spectrophotometric","a/apparent","?","basic",10.0
"11073","S1(C(=NC)N(C)C2(=C1CCCC2))","CN=C1SC2CCCCC=2N1C","InChI=1S/C9H14N2S/c1-10-9-11(2)7-5-3-4-6-8(7)12-9/h3-6H2,1-2H3","NIWIJCJDEPEAJY-UHFFFAOYSA-N","?","21",,"a1/apparent","NH(+)","basic",10.0
"13687","[Si]1(O[Si](CN(C1)C(C)C)(C)C)(C)(C)","CC(C)N1C[Si](C)(C)O[Si](C)(C)C1","InChI=1S/C9H23NOSi2/c1-9(2)10-7-12(3,4)11-13(5,6)8-10/h9H,7-8H2,1-6H3","OPSSRZXHGVPRKV-UHFFFAOYSA-N","?",,,"b/apparent","?","basic",10.0
"13871","[O-]C=2(C1(=NC=CC=C1N=CC=2))","OC1=CC=NC2=CC=CN=C21","InChI=1S/C8H6N2O/c11-7-3-5-9-6-2-1-4-10-8(6)7/h1-5H,(H,9,11)","NSPLFNGUPLZYHV-UHFFFAOYSA-N","?","20","potentiometric","a2/apparent","?","basic",10.01
"16285","S(=O)(=O)(NCCC(=N)NC)C1(=CC=C(C)C=C1)","CC1C=CC(=CC=1)S(=O)(=O)NCCC(=N)NC","InChI=1S/C11H17N3O2S/c1-9-3-5-10(6-4-9)17(15,16)14-8-7-11(12)13-2/h3-6,14H,7-8H2,1-2H3,(H2,12,13)","HIIDLIGAVLKJIX-UHFFFAOYSA-N","?","24.9","potentiometric","a1/apparent","tosylamide","basic",10.02
"14891","N(CC1(=CC=C(C)C=C1))CCCCCCC","CC1C=CC(CNCCCCCCC)=CC=1","InChI=1S/C15H25N/c1-3-4-5-6-7-12-16-13-15-10-8-14(2)9-11-15/h8-11,16H,3-7,12-13H2,1-2H3","RDMOZWNRZMHRTK-UHFFFAOYSA-N","?",,"potentiometric","a1/apparent","amino","basic",10.02
"15419","N(C(C)C)(CCC1(=CC=CC=C1))CCC2(=CC=CC=C2)","CC(C)N(CCC1C=CC=CC=1)CCC1C=CC=CC=1","InChI=1S/C19H25N/c1-17(2)20(15-13-18-9-5-3-6-10-18)16-14-19-11-7-4-8-12-19/h3-12,17H,13-16H2,1-2H3","IKUOKQLIAGADFL-UHFFFAOYSA-N","?","20","potentiometric","a/apparent","?","basic",10.02
"12515","OC1(C2(C(NC(C1)C)CCCC2))(CC)","CC1CC(O)(CC)C2CCCCC2N1","InChI=1S/C12H23NO/c1-3-12(14)8-9(2)13-11-7-5-4-6-10(11)12/h9-11,13-14H,3-8H2,1-2H3","DHLRMEOXSNMQPQ-UHFFFAOYSA-N","?, ?, ?",,"potentiometric","a/apparent","NH2%+&, NH2%+&, NH2%+&","basic",10.023333333333333
"13738","O1(C(=CC=C1)C2(C3(CCN(C2)CC3)))","C1C(C2CCN1CC2)C1=CC=CO1","InChI=1S/C11H15NO/c1-2-11(13-7-1)10-8-12-5-3-9(10)4-6-12/h1-2,7,9-10H,3-6,8H2","FRMNLSFKADQIJG-UHFFFAOYSA-N","?","25","potentiometric","a1/apparent","?","basic",10.03
"17685","N(CCCC)(C)C","CCCCN(C)C","InChI=1S/C6H15N/c1-4-5-6-7(2)3/h4-6H2,1-3H3","DJEQZVQFEPKLOY-UHFFFAOYSA-N","?","22","mean from 3","a1/apparent","?","basic",10.03
"11788","FC1(=C([O-])C=C(CN)C=C1)","NCC1C=CC(F)=C(O)C=1","InChI=1S/C7H8FNO/c8-6-2-1-5(4-9)3-7(6)10/h1-3,10H,4,9H2","MITDKCUPBXYTCM-UHFFFAOYSA-N","?","25","potentiometric","a2/apparent","?","basic",10.04
"17546","N(CC)(C)C","CCN(C)C","InChI=1S/C4H11N/c1-4-5(2)3/h4H2,1-3H3","DAZXVJBJRMWXJP-UHFFFAOYSA-N","?","20","mean from 2","a1/apparent","NH3(1+)","basic",10.05
"15349","N1(=C(NCC1)CN(C2(=CC=CC=C2))CC3(=CC=CC=C3))","C(C1C=CC=CC=1)N(CC1NCCN=1)C1C=CC=CC=1","InChI=1S/C17H19N3/c1-3-7-15(8-4-1)13-20(14-17-18-11-12-19-17)16-9-5-2-6-10-16/h1-10H,11-14H2,(H,18,19)","REYFJDPCWQRWAA-UHFFFAOYSA-N","?","25","potentiometric","a/apparent","?","basic",10.06
"13077","O=C([O-])C1(N)(CCCC1)","NC1(CCCC1)C(O)=O","InChI=1S/C6H11NO2/c7-6(5(8)9)3-1-2-4-6/h1-4,7H2,(H,8,9)","NILQLFBWTXNUOE-UHFFFAOYSA-N","?","30",,"a2/apparent","?","basic",10.06
"11565","[O-]C1(=[N+](C(=CC(=N1)[O-])C)C)","CC1C=C(O)N=C(O)[N+]=1C","InChI=1S/C6H8N2O2/c1-4-3-5(9)7-6(10)8(4)2/h3H,1-2H3,(H,7,9,10)/p+1","OCUWGDBSGJMUNG-UHFFFAOYSA-O","?","25",,"apparent","?","basic",10.06
"16182","O=C(C2(=NC1(=C([O-])N=C(N)N=C1NC2)))C(O)C","CC(O)=C(O)C1CNC2N=C(N)N=C(O)C=2N=1","InChI=1S/C9H11N5O3/c1-3(15)6(16)4-2-11-7-5(12-4)8(17)14-9(10)13-7/h15-16H,2H2,1H3,(H4,10,11,13,14,17)","FYDGMRRMOMSOLR-UHFFFAOYSA-N","?",,"spectrophotometric","a2/apparent","?","basic",10.06
"16767","O=[N+]([O-])C1(=CC(OC(=O)CCCCN(C)C)=CC=C1)","CN(C)CCCC=C(O)OC1C=C(C=CC=1)[N+]([O-])=O","InChI=1S/C13H18N2O4/c1-14(2)9-4-3-8-13(16)19-12-7-5-6-11(10-12)15(17)18/h5-8,10,16H,3-4,9H2,1-2H3","MHKLSQYNKNEITD-UHFFFAOYSA-N","?","20","potentiometric","a1/apparent","NMe2","basic",10.07
"10273","OC1(CC(N)CCC1)","NC1CC(O)CCC1","InChI=1S/C6H13NO/c7-5-2-1-3-6(8)4-5/h5-6,8H,1-4,7H2","NIQIPYGXPZUDDP-UHFFFAOYSA-N","?, ?",,,"a/apparent","?, ?","basic",10.075
"12163","N(CC1(=CC=C(C)C=C1))CCCCC","CC1C=CC(CNCCCCC)=CC=1","InChI=1S/C13H21N/c1-3-4-5-10-14-11-13-8-6-12(2)7-9-13/h6-9,14H,3-5,10-11H2,1-2H3","VFWFEBPPAFNYGI-UHFFFAOYSA-N","?",,"potentiometric","a1/apparent","amino","basic",10.08
"11916","OCCN(C(C)C)C(C)C","CC(C)N(CCO)C(C)C","InChI=1S/C8H19NO/c1-7(2)9(5-6-10)8(3)4/h7-8,10H,5-6H2,1-4H3","ZYWUVGFIXPNBDL-UHFFFAOYSA-N","?","24","mean from 3","a1/apparent","?","basic",10.08
"14708","O=C([O-])C1(NCC(C1CC(=O)[O-])C(O)C)","CC(O)C1CN=C(C1C=C(O)O)C(O)O","InChI=1S/C9H15NO5/c1-4(11)6-3-10-8(9(14)15)5(6)2-7(12)13/h2,4-6,9,11-15H,3H2,1H3","ZGKAIWKJPCDIBH-UHFFFAOYSA-N","?",,,"a3/apparent","?","basic",10.08
"14073","N#CCCCCN(CC)CC","CCN(CCCCC#N)CC","InChI=1S/C9H18N2/c1-3-11(4-2)9-7-5-6-8-10/h3-7,9H2,1-2H3","RLHLKRQJVSVNIQ-UHFFFAOYSA-N","?","25","potentiometric","a/apparent","?","basic",10.08
"12051","OC1(CC2(N(C)C(C1)CC2))","CN1C2CC(O)CC1CC2","InChI=1S/C8H15NO/c1-9-6-2-3-7(9)5-8(10)4-6/h6-8,10H,2-5H2,1H3","CYHOMWAPJJPNMW-UHFFFAOYSA-N","?, ?","25",,"b/apparent","?, ?","basic",10.094999999999999
"14097","N(C(C=C)(C)C)C(C=C)(C)C","CC(C)(C=C)NC(C)(C)C=C","InChI=1S/C10H19N/c1-7-9(3,4)11-10(5,6)8-2/h7-8,11H,1-2H2,3-6H3","PPDIERCWCKAQJY-UHFFFAOYSA-N","?","25","potentiometric","a1/apparent","?","basic",10.1
"11721","O=C([O-])C1(C(N)CCCC1)","NC1CCCCC1=C(O)O","InChI=1S/C7H13NO2/c8-6-4-2-1-3-5(6)7(9)10/h6,9-10H,1-4,8H2","SUOHGEWIDDIQMM-UHFFFAOYSA-N","?",,"potentiometric","2/apparent","?","basic",10.1
"14125","O=C(CCCN(CC)CC)C","CCN(CCCC(=C)O)CC","InChI=1S/C9H19NO/c1-4-10(5-2)8-6-7-9(3)11/h11H,3-8H2,1-2H3","WTJSZOKGYFWHSO-UHFFFAOYSA-N","?",,"potentiometric","a/apparent","?","basic",10.1
"16821","[Si](O[Si](CNC1(CCCCC1))(C)C)(CNC2(CCCCC2))(C)C","C[Si](C)(CNC1CCCCC1)O[Si](C)(C)CNC1CCCCC1","InChI=1S/C18H40N2OSi2/c1-22(2,15-19-17-11-7-5-8-12-17)21-23(3,4)16-20-18-13-9-6-10-14-18/h17-20H,5-16H2,1-4H3","IGMMRVOYYATCTL-UHFFFAOYSA-N","?","25","potentiometric","b/apparent","?","basic",10.11
"17458","O=C([O-])CNC","CN=CC(O)O","InChI=1S/C3H7NO2/c1-4-2-3(5)6/h2-3,5-6H,1H3","FTKWPCCYILUHFL-UHFFFAOYSA-N","?","23","mean from 6","apparent","NH2+","basic",10.11
"10486","OCCNC(C)(C)C","CC(C)(C)NCCO","InChI=1S/C6H15NO/c1-6(2,3)7-4-5-8/h7-8H,4-5H2,1-3H3","IUXYVKZUDNLISR-UHFFFAOYSA-N","?","19","mean from 2","a1/thermodynamic","HN+","basic",10.11
"12672","O=C([O-])CNCC(C)C","CC(C)CN=CC(O)O","InChI=1S/C6H13NO2/c1-5(2)3-7-4-6(8)9/h4-6,8-9H,3H2,1-2H3","IRTWWOLZUUSURY-UHFFFAOYSA-N","?","25","potentiometric","apparent","NH2%+&","basic",10.12
"14407","NC(CC1(=CC=CC=C1))(C)C","CC(C)(N)CC1C=CC=CC=1","InChI=1S/C10H15N/c1-10(2,11)8-9-6-4-3-5-7-9/h3-7H,8,11H2,1-2H3","DHHVAGZRUROJKS-UHFFFAOYSA-N","?","20","potentiometric","a/thermodynamic","?","basic",10.13
"11566","[O-]C1(=[N+](C([O-])=CC(=N1)C)C)","CC1C=C(O)[N+](C)=C(O)N=1","InChI=1S/C6H8N2O2/c1-4-3-5(9)8(2)6(10)7-4/h3H,1-2H3,(H,7,9,10)/p+1","PQOUGVMPBYEJFF-UHFFFAOYSA-O","?","25",,"apparent","?","basic",10.13
"13238","O=C(NCCCCN(C)C)C=N[O-]","CN(C)CCCCNC(=O)CN=O","InChI=1S/C8H17N3O2/c1-11(2)6-4-3-5-9-8(12)7-10-13/h3-7H2,1-2H3,(H,9,12)","GGWBFNOTCQIZLE-UHFFFAOYSA-N","?","25","potentiometric","a2/apparent","?","basic",10.13
"11617","NC(CC1(CCCCC1))C","CC(N)CC1CCCCC1","InChI=1S/C9H19N/c1-8(10)7-9-5-3-2-4-6-9/h8-9H,2-7,10H2,1H3","GIXSTBOIKJPUKD-UHFFFAOYSA-N","?","25","potentiometric","b/apparent","?","basic",10.14
"16053","O=C(NCCCN(CCCC(C)C)C)C=N[O-]","CC(C)CCCN(C)CCCNC(=O)CN=O","InChI=1S/C12H25N3O2/c1-11(2)6-4-8-15(3)9-5-7-13-12(16)10-14-17/h11H,4-10H2,1-3H3,(H,13,16)","VVMZPHLLXWBJCM-UHFFFAOYSA-N","?","25","potentiometric","a2/apparent","?","basic",10.15
"17703","O=C(O)C(N)(C)C","CC(C)(N)C(O)=O","InChI=1S/C4H9NO2/c1-4(2,5)3(6)7/h5H2,1-2H3,(H,6,7)","FUOOLUPWFVMBKG-UHFFFAOYSA-N","?","21","mean from 4","a2/apparent","NH3(+)","basic",10.15
"11896","O=C(OCC)CCCCN","CCOC(O)=CCCCN","InChI=1S/C7H15NO2/c1-2-10-7(9)5-3-4-6-8/h5,9H,2-4,6,8H2,1H3","DDOCXOLODFSKPS-UHFFFAOYSA-N","?","25","potentiometric","apparent","NH3+","basic",10.15
"11198","OCC1(C2(N(CCC1)CCCC2))","OCC1CCCN2CCCCC21","InChI=1S/C10H19NO/c12-8-9-4-3-7-11-6-2-1-5-10(9)11/h9-10,12H,1-8H2","HDVAWXXJVMJBAR-UHFFFAOYSA-N","?",,"spectrophotometric","b/apparent","?","basic",10.16
"17723","O=C([O-])CNCC","CCN=CC(O)O","InChI=1S/C4H9NO2/c1-2-5-3-4(6)7/h3-4,6-7H,2H2,1H3","CSFVKTYZTWXLAD-UHFFFAOYSA-N","?","25","mean from 2","apparent","NH2+","basic",10.16
"12671","O=C([O-])CNCCCC","CCCCN=CC(O)O","InChI=1S/C6H13NO2/c1-2-3-4-7-5-6(8)9/h5-6,8-9H,2-4H2,1H3","LMAWUSFQIDAPEF-UHFFFAOYSA-N","?","25","mean from 2","apparent","NH2%+&","basic",10.16
"14663","N(CC1(=CC=C(C)C=C1))CCCCCC","CC1C=CC(CNCCCCCC)=CC=1","InChI=1S/C14H23N/c1-3-4-5-6-11-15-12-14-9-7-13(2)8-10-14/h7-10,15H,3-6,11-12H2,1-2H3","LZHZILOCUSXRDL-UHFFFAOYSA-N","?",,"potentiometric","a1/apparent","amino","basic",10.17
"17420","NCC(C)(C)C","CC(C)(C)CN","InChI=1S/C5H13N/c1-5(2,3)4-6/h4,6H2,1-3H3","XDIAMRVROCPPBK-UHFFFAOYSA-N","?","20","mean from 5","b1/apparent","?","basic",10.17
"13105","OC1(C(CCCC1)CN)","NCC1CCCCC1O","InChI=1S/C7H15NO/c8-5-6-3-1-2-4-7(6)9/h6-7,9H,1-5,8H2","JGKFBZBVCAWDFD-UHFFFAOYSA-N","?","25","potentiometric","b/thermodynamic","?","basic",10.18
"12675","O=C([O-])C(NCCC)C","CCCN=C(C)C(O)O","InChI=1S/C6H13NO2/c1-3-4-7-5(2)6(8)9/h6,8-9H,3-4H2,1-2H3","WWSVBEMQNBETIN-UHFFFAOYSA-N","?","25","potentiometric","apparent","NH2%+&","basic",10.19
"10332","NC12(CC(CC1)CC2)","NC12CC(CC1)CC2","InChI=1S/C7H13N/c8-7-3-1-6(5-7)2-4-7/h6H,1-5,8H2","VUFQYRAKSQTZEB-UHFFFAOYSA-N","?","25","potentiometric","b1/apparent","?","basic",10.19
"11046","N2(C1(=C(C=CC=C1)C(=C2)CCN))","NCCC1=CNC2C=CC=CC=21","InChI=1S/C10H12N2/c11-6-5-8-7-12-10-4-2-1-3-9(8)10/h1-4,7,12H,5-6,11H2","APJYDQYYACXCRM-UHFFFAOYSA-N","?",,"potentiometric","a/apparent","?","basic",10.2
"16022","N23(CC(C1(=CC=CC=C1))C(CC2)CC3)","C1C(C2CCN1CC2)C1C=CC=CC=1","InChI=1S/C13H17N/c1-2-4-11(5-3-1)13-10-14-8-6-12(13)7-9-14/h1-5,12-13H,6-10H2","RAOXQTRNOCTXKZ-UHFFFAOYSA-N","?","25",,"a/apparent","NH+","basic",10.2
"15860","O3(CCN(CCN=C2(N(N=C(C1(=CC=CC=C1))C=C2)C))CC3)","CN1N=C(C=CC1=NCCN1CCOCC1)C1C=CC=CC=1","InChI=1S/C17H22N4O/c1-20-17(18-9-10-21-11-13-22-14-12-21)8-7-16(19-20)15-5-3-2-4-6-15/h2-8H,9-14H2,1H3","QDCPCJQJYKATFO-UHFFFAOYSA-N","?","25","potentiometric","a2/apparent","?","basic",10.2
"10482","OC(N(CC)CC)C","CC(O)N(CC)CC","InChI=1S/C6H15NO/c1-4-7(5-2)6(3)8/h6,8H,4-5H2,1-3H3","RQNOFUZGXHSHOT-UHFFFAOYSA-N","?","25","potentiometric","a1/apparent","N(+)-H","basic",10.2
"14669","O=C([O-])C1(NCC(C1CC(=O)[O-])C(=C)C)","CC(=C)C1CN=C(C1C=C(O)O)C(O)O","InChI=1S/C10H15NO4/c1-5(2)7-4-11-9(10(14)15)6(7)3-8(12)13/h3,6-7,10,12-15H,1,4H2,2H3","RSBFVRNCRHSKHQ-UHFFFAOYSA-N","?",,,"a3/apparent","?","basic",10.21
"17418","NCCCC#C","C#CCCCN","InChI=1S/C5H9N/c1-2-3-4-5-6/h1H,3-6H2","LMDDPGHBJXJGAC-UHFFFAOYSA-N","?","20","potentiometric","a1/apparent","?","basic",10.21
"13019","N1(C(CCCC1C)C)(C)","CN1C(C)CCCC1C","InChI=1S/C8H17N/c1-7-5-4-6-8(2)9(7)3/h7-8H,4-6H2,1-3H3","COSHJOZVKGAYBP-UHFFFAOYSA-N","?","30","potentiometric","a/apparent","NH+","basic",10.21
"15276","O=[N+]([O-])C1(=CC(=C([O-])C=C1)CN(CC(=O)[O-])CC(=O)[O-])","[O-][N+](=O)C1C=CC(O)=C(CN(C=C(O)O)C=C(O)O)C=1","InChI=1S/C11H12N2O7/c14-9-2-1-8(13(19)20)3-7(9)4-12(5-10(15)16)6-11(17)18/h1-3,5-6,14-18H,4H2","ZMKSQNUFCOAHKG-UHFFFAOYSA-N","?","20","potentiometric","a3/apparent","?","basic",10.22
"17461","O=C([O-])CCN","NCC=C(O)O","InChI=1S/C3H7NO2/c4-2-1-3(5)6/h1,5-6H,2,4H2","TUUJJZOJQFUADW-UHFFFAOYSA-N","?","25","mean from 20","a2/apparent","COOH","basic",10.22
"10462","O=C([O-])C(NCC)C","CCN=C(C)C(O)O","InChI=1S/C5H11NO2/c1-3-6-4(2)5(7)8/h5,7-8H,3H2,1-2H3","XMSGLSVWJUGOMH-UHFFFAOYSA-N","?","25","potentiometric","apparent","NH2%+&","basic",10.22
"16638","O=C(C1(=CC(=C([O-])C=C1)CN(C)C))C2(=CC=CC=C2)","CN(C)CC1C=C(C=CC=1O)C(=O)C1C=CC=CC=1","InChI=1S/C16H17NO2/c1-17(2)11-14-10-13(8-9-15(14)18)16(19)12-6-4-3-5-7-12/h3-10,18H,11H2,1-2H3","AIYLOWIRWMMCIA-UHFFFAOYSA-N","?","25","potentiometric","a1/thermodynamic","OH","basic",10.23
"11628","N(CCC1(=CC=CC=C1))C","CNCCC1C=CC=CC=1","InChI=1S/C9H13N/c1-10-8-7-9-5-3-2-4-6-9/h2-6,10H,7-8H2,1H3","SASNBVQSOZSTPD-UHFFFAOYSA-N","?","25","mean from 2","b/thermodynamic","?","basic",10.23
"11099","O1(C(=NC)N(C)C2(=C1CCCC2))","CN=C1OC2CCCCC=2N1C","InChI=1S/C9H14N2O/c1-10-9-11(2)7-5-3-4-6-8(7)12-9/h3-6H2,1-2H3","FLCZCPYRUZKJAQ-UHFFFAOYSA-N","?","21",,"a1/apparent","NH(+)","basic",10.23
"13930","OC2(C1(N(CCC1CO)CC2))","OC1CCN2CCC(CO)C21","InChI=1S/C8H15NO2/c10-5-6-1-3-9-4-2-7(11)8(6)9/h6-8,10-11H,1-5H2","QWOXSTGOGUNUGF-UHFFFAOYSA-N","?","24","potentiometric","a/apparent","NH+","basic",10.24
"11647","N1(C(CC(C)CC1)(C)C)(C)","CC1CC(C)(C)N(C)CC1","InChI=1S/C9H19N/c1-8-5-6-10(4)9(2,3)7-8/h8H,5-7H2,1-4H3","BKZJRKNFIWYMBC-UHFFFAOYSA-N","?","30","potentiometric","a/apparent","NH+","basic",10.24
"10212","N1(C(CCCC1)C)(C)","CC1CCCCN1C","InChI=1S/C7H15N/c1-7-5-3-4-6-8(7)2/h7H,3-6H2,1-2H3","MWUISCCBFHLWLY-UHFFFAOYSA-N","?","25","potentiometric","a/apparent","NH+","basic",10.26
"11611","NCCCC1(=CC=CC=C1)","NCCCC1C=CC=CC=1","InChI=1S/C9H13N/c10-8-4-7-9-5-2-1-3-6-9/h1-3,5-6H,4,7-8,10H2","LYUQWQRTDLVQGA-UHFFFAOYSA-N","?","23","mean from 4","a1/apparent","?","basic",10.27
"15332","O=C(OC1(CC2(NC(C1)CC2)))C(C3(=CC=CC=C3))CO","OC(OC1CC2CCC(C1)N2)=C(CO)C1C=CC=CC=1","InChI=1S/C16H21NO3/c18-10-15(11-4-2-1-3-5-11)16(19)20-14-8-12-6-7-13(9-14)17-12/h1-5,12-14,17-19H,6-10H2","HKXIULKGUHEVCK-UHFFFAOYSA-N","?",,"potentiometric","a/apparent","NH%+&2","basic",10.28
"12630","NC(CCCC(C)C)C","CC(C)CCCC(C)N","InChI=1S/C8H19N/c1-7(2)5-4-6-8(3)9/h7-8H,4-6,9H2,1-3H3","QNIVIMYXGGFTAK-UHFFFAOYSA-N","?","25","potentiometric","b/apparent","?","basic",10.28
"13381","O=C(OCC1(C2(CCN(C1)CC2)))C","C=C(O)OCC1CN2CCC1CC2","InChI=1S/C10H17NO2/c1-8(12)13-7-10-6-11-4-2-9(10)3-5-11/h9-10,12H,1-7H2","BWEUCBNCHPYJOH-UHFFFAOYSA-N","?","25",,"a1/apparent","?","basic",10.29
"16307","N23(CC(C1(=CC=C(N(C)C)C=C1))C(CC2)CC3)","CN(C)C1=CC=C(C=C1)C1CN2CCC1CC2","InChI=1S/C15H22N2/c1-16(2)14-5-3-12(4-6-14)15-11-17-9-7-13(15)8-10-17/h3-6,13,15H,7-11H2,1-2H3","GWQZRYXMFKWKNB-UHFFFAOYSA-N","?","25",,"a/apparent","?","basic",10.29
"17640","NCCCCCN","NCCCCCN","InChI=1S/C5H14N2/c6-4-2-1-3-5-7/h1-7H2","VHRGRCVQAFMJIZ-UHFFFAOYSA-N","?, ?","22","mean from 5","a1/apparent","NH3(1+), NH3(1+)","basic",10.29
"15056","OC=1(N(N=C(C=1)C)C2(=NC([O-])=C(C)C(=N2)C))","CC1=NC(=NC(O)=C1C)N1N=C(C)C=C1O","InChI=1S/C10H12N4O2/c1-5-4-8(15)14(13-5)10-11-7(3)6(2)9(16)12-10/h4,15H,1-3H3,(H,11,12,16)","VBANUYXYNRELIJ-UHFFFAOYSA-N","?","20","potentiometric","a2/apparent","?","basic",10.3
"17033","O(C2(=CC1(=C(NC=C1CC(N)C)C=C2)))C","COC1=CC2C(CC(C)N)=CNC=2C=C1","InChI=1S/C12H16N2O/c1-8(13)5-9-7-14-12-4-3-10(15-2)6-11(9)12/h3-4,6-8,14H,5,13H2,1-2H3","OGNJZVNNKBZFRM-UHFFFAOYSA-N","?",,"potentiometric","a/apparent","?","basic",10.3
"17425","N(C(C)C)(C)C","CC(C)N(C)C","InChI=1S/C5H13N/c1-5(2)6(3)4/h5H,1-4H3","VMOWKUTXPNPTEN-UHFFFAOYSA-N","?","20","conductometric","a/apparent","?","basic",10.3
"12010","S2(C1(=NCCCN1C(=C2)C))","CC1=CSC2=NCCCN21","InChI=1S/C7H10N2S/c1-6-5-10-7-8-3-2-4-9(6)7/h5H,2-4H2,1H3","CSLUAIAPONZAKA-UHFFFAOYSA-N","?","25","potentiometric","a1/apparent","?","basic",10.31
"16181","ClC1(=C(Cl)C=C(Cl)C(=C1CN2(CCCCC2))[O-])","OC1=C(CN2CCCCC2)C(Cl)=C(Cl)C=C1Cl","InChI=1S/C12H14Cl3NO/c13-9-6-10(14)12(17)8(11(9)15)7-16-4-2-1-3-5-16/h6,17H,1-5,7H2","LYOJCXAXCLIMPH-UHFFFAOYSA-N","?","25","spectrophotometric","a2/apparent","R2NH","basic",10.32
"12319","O=C(NCCCN(CC)CC)C=N[O-]","CCN(CCCNC(=O)CN=O)CC","InChI=1S/C9H19N3O2/c1-3-12(4-2)7-5-6-10-9(13)8-11-14/h3-8H2,1-2H3,(H,10,13)","FRTXTQSADGYHBV-UHFFFAOYSA-N","?","25","potentiometric","a2/apparent","?","basic",10.33
"10420","NCCCCCCC","CCCCCCCN","InChI=1S/C7H17N/c1-2-3-4-5-6-7-8/h2-8H2,1H3","WJYIASZWHGOTOU-UHFFFAOYSA-N","?","25","mean from 2","a1/apparent","?","basic",10.34
"11123","N1(C(CCC1)CC2(=CC=CC=C2))","C(C1CCCN1)C1C=CC=CC=1","InChI=1S/C11H15N/c1-2-5-10(6-3-1)9-11-7-4-8-12-11/h1-3,5-6,11-12H,4,7-9H2","NKHMSOXIXROFRU-UHFFFAOYSA-N","?","25","potentiometric","b/apparent","?","basic",10.35
"15201","O=C(NCCCN(CCC)CCC)C=N[O-]","CCCN(CCC)CCCNC(=O)CN=O","InChI=1S/C11H23N3O2/c1-3-7-14(8-4-2)9-5-6-12-11(15)10-13-16/h3-10H2,1-2H3,(H,12,15)","BPXHMFGSPPTZKU-UHFFFAOYSA-N","?","25","potentiometric","a2/apparent","?","basic",10.35
"17467","OCCCCN","NCCCCO","InChI=1S/C4H11NO/c5-3-1-2-4-6/h6H,1-5H2","BLFRQYKZFKYQLO-UHFFFAOYSA-N","?","20","potentiometric","a/apparent","?","basic",10.35
"11714","O=C([O-])CN1(CCCCC1)","OC(O)=CN1CCCCC1","InChI=1S/C7H13NO2/c9-7(10)6-8-4-2-1-3-5-8/h6,9-10H,1-5H2","JFAIUGUXAHYWNB-UHFFFAOYSA-N","?","25",,"a1/apparent","?","basic",10.35
"17542","NCC(C)C","CC(C)CN","InChI=1S/C4H11N/c1-4(2)3-5/h4H,3,5H2,1-2H3","KDSNLYIMUZNERS-UHFFFAOYSA-N","?","25","mean from 2","b1/apparent","NH2","basic",10.36
"16892","O3(CCN(CCN=C2(N(N=C(C1(=CC=CC=C1))C=C2C)C))CC3)","CN1N=C(C=C(C)C1=NCCN1CCOCC1)C1=CC=CC=C1","InChI=1S/C18H24N4O/c1-15-14-17(16-6-4-3-5-7-16)20-21(2)18(15)19-8-9-22-10-12-23-13-11-22/h3-7,14H,8-13H2,1-2H3","ULKAFABQSZYPKJ-UHFFFAOYSA-N","?","25","potentiometric","a2/apparent","?","basic",10.37
"14116","O=C(OCC)CCCCCN","CCOC(O)=CCCCCN","InChI=1S/C8H17NO2/c1-2-11-8(10)6-4-3-5-7-9/h6,10H,2-5,7,9H2,1H3","LEMFOFUQXRZTHQ-UHFFFAOYSA-N","?","25",,"apparent","NH3%+&","basic",10.37
"11635","NC(C1(=CC=CC=C1))(C)C","CC(C)(N)C1C=CC=CC=1","InChI=1S/C9H13N/c1-9(2,10)8-6-4-3-5-7-8/h3-7H,10H2,1-2H3","KDFDOINBXBEOLZ-UHFFFAOYSA-N","?","20","potentiometric","a/thermodynamic","?","basic",10.38
"12858","[S-]C1(=NC(N)=C(N)C=N1)","NC1=NC(S)=NC=C1N","InChI=1S/C4H6N4S/c5-2-1-7-4(9)8-3(2)6/h1H,5H2,(H3,6,7,8,9)","KDVXWCSUTDEXFF-UHFFFAOYSA-N","?",,"potentiometric","a2/apparent","?","basic",10.39
"17424","N(CC)(CC)C","CN(CC)CC","InChI=1S/C5H13N/c1-4-6(3)5-2/h4-5H2,1-3H3","GNVRJGIVDSQCOP-UHFFFAOYSA-N","?","22","mean from 3","a1/apparent","?","basic",10.39
"14671","O=C([O-])C1(NC(CC(=O)[O-])CC1C(C)C)","CC(C)C1CC(C=C(O)O)N=C1C(O)O","InChI=1S/C10H17NO4/c1-5(2)7-3-6(4-8(12)13)11-9(7)10(14)15/h4-7,10,12-15H,3H2,1-2H3","PMYUMHLUJWQAPB-UHFFFAOYSA-N","?",,,"a3/apparent","?","basic",10.4
"15624","O=C([O-])CCCCCCCC1(NC(C(O)CC1)C)","CC1NC(CCC1O)CCCCCCC=C(O)O","InChI=1S/C14H27NO3/c1-11-13(16)10-9-12(15-11)7-5-3-2-4-6-8-14(17)18/h8,11-13,15-18H,2-7,9-10H2,1H3","UADNCFFOMXVUEC-UHFFFAOYSA-N","?",,"potentiometric","a2/apparent","NH2+","basic",10.4