"Molecule name","OriginalSmiles","Canonical_QSARr","InChI_Code_QSARr","InChI Key_QSARr","Salt_Solvent (Concatenate)","temp","method","type","group","basicOrAcidic","pKa"
"12640","S(CCN(CC)CC)C","CSCCN(CC)CC","InChI=1S/C7H17NS/c1-4-8(5-2)6-7-9-3/h4-7H2,1-3H3","NCEBDVSAEIMPNE-UHFFFAOYSA-N","?","17","potentiometric","b/apparent","?","basic",9.62
"10443","O=C(O)C(N)C(C)C","CC(C)C(=N)C(O)O","InChI=1S/C5H11NO2/c1-3(2)4(6)5(7)8/h3,5-8H,1-2H3","FVGFYMIHGYVMRT-UHFFFAOYSA-N","?, ?","26","mean from 5","a1/apparent","COOH, COOH","basic",9.620000000000001
"13139","O=C([O-])C1(NCC(C1)O)","OC(O)C1CC(O)CN=1","InChI=1S/C5H9NO3/c7-3-1-4(5(8)9)6-2-3/h3,5,7-9H,1-2H2","WJWKTZPSBZACNN-UHFFFAOYSA-N","?","23","mean from 6","a1/apparent","COOH","basic",9.64
"13014","N(CC1(=CC=CC=C1))C","CNCC1C=CC=CC=1","InChI=1S/C8H11N/c1-9-7-8-5-3-2-4-6-8/h2-6,9H,7H2,1H3","RIWRFSMVIUAEBX-UHFFFAOYSA-N","?","25","mean from 3","a1","?","basic",9.64
"14487","O=C([O-])C1(=CC=C(CN)C=C1)","NCC1=CC=C(C=C1)C(O)=O","InChI=1S/C8H9NO2/c9-5-6-1-3-7(4-2-6)8(10)11/h1-4H,5,9H2,(H,10,11)","QCTBMLYLENLHLA-UHFFFAOYSA-N","?","20","potentiometric","2/thermodynamic","?","basic",9.64
"15031","N=1(C=3(C(C=C2(C=1C=C(N)C=C2))=CC=C(C=3)N))","NC1=CC2=NC3=CC(N)=CC=C3C=C2C=C1","InChI=1S/C13H11N3/c14-10-3-1-8-5-9-2-4-11(15)7-13(9)16-12(8)6-10/h1-7H,14-15H2","WDVSHHCDHLJJJR-UHFFFAOYSA-N","?","20","spectrophotometric","a/apparent","?","basic",9.65
"17727","O=C([O-])C=CCN","NCC=CC(O)=O","InChI=1S/C4H7NO2/c5-3-1-2-4(6)7/h1-2H,3,5H2,(H,6,7)","FMKJUUQOYOHLTF-UHFFFAOYSA-N","?, ?",,"potentiometric","a/apparent","?, ?","basic",9.65
"11672","[Br]C1(=CC=C(CCN)C=C1)","NCCC1=CC=C(Br)C=C1","InChI=1S/C8H10BrN/c9-8-3-1-7(2-4-8)5-6-10/h1-4H,5-6,10H2","ZSZCXAOQVBEPME-UHFFFAOYSA-N","?","25","potentiometric","a1/apparent","?","basic",9.65
"16551","O=C(OC1(CC2(N(C)C(C1)CC2)))C(C3(=CC=CC=C3))CO","CN1C2CC(CC1CC2)OC(O)=C(CO)C1C=CC=CC=1","InChI=1S/C17H23NO3/c1-18-13-7-8-14(18)10-15(9-13)21-17(20)16(11-19)12-5-3-2-4-6-12/h2-6,13-15,19-20H,7-11H2,1H3","DGVNVNTXRVQENM-UHFFFAOYSA-N","?","21","mean from 2","b/apparent","?","basic",9.66
"17562","O=C(O)CN","N=CC(O)O","InChI=1S/C2H5NO2/c3-1-2(4)5/h1-5H","GUTDXWPGAOEFFH-UHFFFAOYSA-N","?, ?","26","mean from 14","a2/apparent","COOH, ?","basic",9.66
"17515","NCCCN","NCCCN","InChI=1S/C3H10N2/c4-2-1-3-5/h1-5H2","XFNJVJPLKCPIBV-UHFFFAOYSA-N","?, ?","23","mean from 7","b1/apparent","?, ?","basic",9.66
"13015","N1(CCCCC1)(CC=C)","C=CCN1CCCCC1","InChI=1S/C8H15N/c1-2-6-9-7-4-3-5-8-9/h2H,1,3-8H2","KYGMSGYKSGNPHM-UHFFFAOYSA-N","?","26","mean from 2","a/apparent","?","basic",9.66
"11918","O=C(CCCCN(C)C)C","CN(C)CCCCC(=C)O","InChI=1S/C8H17NO/c1-8(10)6-4-5-7-9(2)3/h10H,1,4-7H2,2-3H3","PZJOKLSCOXLNKS-UHFFFAOYSA-N","?","24.5",,"a/apparent","?","basic",9.66
"17385","N(CCCN)C","CNCCCN","InChI=1S/C4H12N2/c1-6-4-2-3-5/h6H,2-5H2,1H3","QHJABUZHRJTCAR-UHFFFAOYSA-N","?, ?","22","potentiometric","a1/apparent","?, ?","basic",9.665
"15773","N=C(NC1(=C(C=CC=C1)C))NC2(=C(C=CC=C2)C)","CC1C=CC=CC=1NC(=N)NC1C=CC=CC=1C","InChI=1S/C15H17N3/c1-11-7-3-5-9-13(11)17-15(16)18-14-10-6-4-8-12(14)2/h3-10H,1-2H3,(H3,16,17,18)","OPNUROKCUBTKLF-UHFFFAOYSA-N","?","18",,"b/thermodynamic","?","basic",9.67
"17568","O(CCN)C","COCCN","InChI=1S/C3H9NO/c1-5-3-2-4/h2-4H2,1H3","ASUDFOJKTJLAIK-UHFFFAOYSA-N","?","25","mean from 2","a1/apparent","N-H","basic",9.67
"17726","O=C([O-])C(N)CC","CCC(=N)C(O)O","InChI=1S/C4H9NO2/c1-2-3(5)4(6)7/h4-7H,2H2,1H3","DLLYTQPYHWQCMQ-UHFFFAOYSA-N","?","20","mean from 4","a2/apparent","NH3(+)","basic",9.67
"10838","OC(C1(=CC=CC=C1))C(NC)C","CC(NC)C(O)C1C=CC=CC=1","InChI=1S/C10H15NO/c1-8(11-2)10(12)9-6-4-3-5-7-9/h3-8,10-12H,1-2H3","KWGRBVOPPLSCSI-UHFFFAOYSA-N","?, ?, ?","20","potentiometric","a1/thermodynamic","-NH2(1+)-, NH, ?","basic",9.676666666666666
"15569","OCC1(C=CC(C1)N3(C2(=NC(=NC(=C2N=C3)[O-])N)))","NC1=NC(O)=C2N=CN(C3CC(CO)C=C3)C2=N1","InChI=1S/C11H13N5O2/c12-11-14-9-8(10(18)15-11)13-5-16(9)7-2-1-6(3-7)4-17/h1-2,5-7,17H,3-4H2,(H3,12,14,15,18)","XSSYCIGJYCVRRK-UHFFFAOYSA-N","?","25","spectrophotometric","a2/apparent","NH","basic",9.68
"12872","N1(=C(C=C(N)C(=C1)C)C)","CC1C=C(N)C(C)=CN=1","InChI=1S/C7H10N2/c1-5-4-9-6(2)3-7(5)8/h3-4H,1-2H3,(H2,8,9)","KQCWCIYVDIVYAB-UHFFFAOYSA-N","?","30",,"a1/apparent","N-H","basic",9.68
"15848","O=[N+]([O-])C1(=CC(=C([O-])C=C1)CN2(CCOCCOCCOCCOCC2))","[O-][N+](=O)C1=CC(CN2CCOCCOCCOCCOCC2)=C(O)C=C1","InChI=1S/C17H26N2O7/c20-17-2-1-16(19(21)22)13-15(17)14-18-3-5-23-7-9-25-11-12-26-10-8-24-6-4-18/h1-2,13,20H,3-12,14H2","COJYEZKFVGSQHQ-UHFFFAOYSA-N","?","25",,"a2/apparent","N%+&","basic",9.69
"17649","N(CCCNC)C","CNCCCNC","InChI=1S/C5H14N2/c1-6-4-3-5-7-2/h6-7H,3-5H2,1-2H3","UQUPIHHYKUEXQD-UHFFFAOYSA-N","?, ?","22","potentiometric","a1/apparent","?, ?","basic",9.69
"12678","O=C([O-])C(N)CC(C)C","CC(C)CC(=N)C(O)O","InChI=1S/C6H13NO2/c1-4(2)3-5(7)6(8)9/h4,6-9H,3H2,1-2H3","WRUOJBIHMBVTMJ-UHFFFAOYSA-N","?, ?","25","mean from 2","a2/apparent","?, ?","basic",9.69
"12680","O=C([O-])C(N)C(CC)C","CC(CC)C(=N)C(O)O","InChI=1S/C6H13NO2/c1-3-4(2)5(7)6(8)9/h4,6-9H,3H2,1-2H3","LOQLGIQNCXPRDS-UHFFFAOYSA-N","?, ?","25","mean from 3","a1/apparent","?, NH2-H","basic",9.695
"14692","O=C(OC1(=CC=CC=C1))CCCN(C)C","CN(C)CCC=C(O)OC1C=CC=CC=1","InChI=1S/C12H17NO2/c1-13(2)10-6-9-12(14)15-11-7-4-3-5-8-11/h3-5,7-9,14H,6,10H2,1-2H3","RPQYJDZANZKDGM-UHFFFAOYSA-N","?","20","potentiometric","a1/apparent","NMe2","basic",9.7
"16451","S1(N=C(OCC(O)CNC(C)(C)C)C(=N1)N2(CCOCC2))","CC(C)(C)NCC(O)COC1=NSN=C1N1CCOCC1","InChI=1S/C13H24N4O3S/c1-13(2,3)14-8-10(18)9-20-12-11(15-21-16-12)17-4-6-19-7-5-17/h10,14,18H,4-9H2,1-3H3","BLJRIMJGRPQVNF-UHFFFAOYSA-N","?","20","potentiometric","a1/apparent","NH","basic",9.7
"15861","O3(CCN(CCN2(N=C(C1(=CC=CC=C1))C=C(C2=N)C))CC3)","CC1=CC(=NN(CCN2CCOCC2)C1=N)C1C=CC=CC=1","InChI=1S/C17H22N4O/c1-14-13-16(15-5-3-2-4-6-15)19-21(17(14)18)8-7-20-9-11-22-12-10-20/h2-6,13,18H,7-12H2,1H3","DEHMKNLLNDHXIC-UHFFFAOYSA-N","?","25","potentiometric","a2/apparent","?","basic",9.7
"15891","N=1(C=3(C(C(N)=CC=1C=CC2(=CC=C(N(C)C)C=C2))=CC=CC=3))","CN(C)C1C=CC(C=CC2C=C(N)C3=CC=CC=C3N=2)=CC=1","InChI=1S/C19H19N3/c1-22(2)16-11-8-14(9-12-16)7-10-15-13-18(20)17-5-3-4-6-19(17)21-15/h3-13H,1-2H3,(H2,20,21)","NPAMTALFCRJHTK-UHFFFAOYSA-N","?","20",,"a/apparent","?","basic",9.7
"15834","OC4(CC3(C(C2(C(C1(C(C(C(CCCN)C)CC1)(C)CC2))CC3))(C)CC4))","CC(CCCN)C1CCC2C3CCC4CC(O)CCC4(C)C3CCC21C","InChI=1S/C24H43NO/c1-16(5-4-14-25)20-8-9-21-19-7-6-17-15-18(26)10-12-23(17,2)22(19)11-13-24(20,21)3/h16-22,26H,4-15,25H2,1-3H3","SAKBQEIYSXSAKB-UHFFFAOYSA-N","?","25","potentiometric","a1/thermodynamic","-NH3(1+)","basic",9.7
"10724","OC1(=C(C=C(C)C=C1CN)CN)","CC1=CC(CN)=C(O)C(CN)=C1","InChI=1S/C9H14N2O/c1-6-2-7(4-10)9(12)8(3-6)5-11/h2-3,12H,4-5,10-11H2,1H3","WFUYUPBXEWUWNA-UHFFFAOYSA-N","?","23.9","potentiometric","a2/apparent","NH2(+)-H","basic",9.7
"11347","OC(CN(CC)CC)(CC=C)C","CC(O)(CC=C)CN(CC)CC","InChI=1S/C10H21NO/c1-5-8-10(4,12)9-11(6-2)7-3/h5,12H,1,6-9H2,2-4H3","SDOSCJDFUFPUBY-UHFFFAOYSA-N","?","25","potentiometric","a1/apparent","?","basic",9.71
"12647","O=C(OCC)CCCN","CCOC(O)=CCCN","InChI=1S/C6H13NO2/c1-2-9-6(8)4-3-5-7/h4,8H,2-3,5,7H2,1H3","HHFHQMZVCITGSS-UHFFFAOYSA-N","?","25","potentiometric","apparent","NH3%+&","basic",9.71
"17539","O(C(=N)N)C","COC(N)=N","InChI=1S/C2H6N2O/c1-5-2(3)4/h1H3,(H3,3,4)","RMAHPRNLQIRHIJ-UHFFFAOYSA-N","?","24","potentiometric","a/apparent","?","basic",9.72
"12941","[O-]C1(=[N+](C=CC(=N1)[O-])C)","C[N+]1=CC=C(O)N=C1O","InChI=1S/C5H6N2O2/c1-7-3-2-4(8)6-5(7)9/h2-3H,1H3,(H,6,8,9)/p+1","XBCXJKGHPABGSD-UHFFFAOYSA-O","?","25","mean from 2","apparent","?","basic",9.73
"17251","NCC=C","C=CCN","InChI=1S/C3H7N/c1-2-3-4/h2H,1,3-4H2","VVJKKWFAADXIJK-UHFFFAOYSA-N","?","23","mean from 3","b1/apparent","NH%+&","basic",9.74
"13331","[O-]C2(=[N+](C=1(C(=CC=CC=1)N=C2[O-]))C)","C[N+]1=C2C=CC=CC2=NC(O)=C1O","InChI=1S/C9H8N2O2/c1-11-7-5-3-2-4-6(7)10-8(12)9(11)13/h2-5H,1H3,(H,10,12)/p+1","ZJDLDFIDSAFPFG-UHFFFAOYSA-O","?","25","potentiometric","a/apparent","?","basic",9.74
"15600","O=[N+]([O-])C1(=CC(=C([O-])C=C1)CNC(C(=O)[O-])CO)","[O-][N+](=O)C1C=CC(O)=C(CN=C(CO)C(O)O)C=1","InChI=1S/C10H12N2O6/c13-5-8(10(15)16)11-4-6-3-7(12(17)18)1-2-9(6)14/h1-3,10,13-16H,4-5H2","XEGPVLSQXONHBD-UHFFFAOYSA-N","?","25","mean from 2","a3/apparent","=NH-H(1+)","basic",9.75
"10483","OCC(CN(C)C)C","CC(CO)CN(C)C","InChI=1S/C6H15NO/c1-6(5-8)4-7(2)3/h6,8H,4-5H2,1-3H3","FZASHPCRPMSFEG-UHFFFAOYSA-N","?","25","potentiometric","a1/thermodynamic","N-H%+&","basic",9.75
"11618","N(CC1(=CC=CC=C1))CC","CCNCC1C=CC=CC=1","InChI=1S/C9H13N/c1-2-10-8-9-6-4-3-5-7-9/h3-7,10H,2,8H2,1H3","HVAAHUDGWQAAOJ-UHFFFAOYSA-N","?","25","mean from 2","a1/apparent","NH3(1+)","basic",9.75
"17737","OCCCN(C)C","CN(C)CCCO","InChI=1S/C5H13NO/c1-6(2)4-3-5-7/h7H,3-5H2,1-2H3","PYSGFFTXMUWEOT-UHFFFAOYSA-N","?","25","potentiometric","a1/thermodynamic","N-H%+&","basic",9.76
"16826","ClC1(=C(OC)C(=C([O-])C(=C1)CC)C(=O)NCC2(N(CCC2)CC))","COC1=C(Cl)C=C(CC)C(O)=C1C(=O)NCC1CCCN1CC","InChI=1S/C17H25ClN2O3/c1-4-11-9-13(18)16(23-3)14(15(11)21)17(22)19-10-12-7-6-8-20(12)5-2/h9,12,21H,4-8,10H2,1-3H3,(H,19,22)","AADCDMQTJNYOSS-UHFFFAOYSA-N","?","25","potentiometric","a2/apparent","NH","basic",9.77
"11899","OC(CO)CN(CC)CC","CCN(CC(O)CO)CC","InChI=1S/C7H17NO2/c1-3-8(4-2)5-7(10)6-9/h7,9-10H,3-6H2,1-2H3","LTACQVCHVAUOKN-UHFFFAOYSA-N","?","25","potentiometric","a1/apparent","?","basic",9.77
"12508","OC1(C=C)(C2(C(NC(C1)C)CCCC2))","CC1CC(O)(C=C)C2CCCCC2N1","InChI=1S/C12H21NO/c1-3-12(14)8-9(2)13-11-7-5-4-6-10(11)12/h3,9-11,13-14H,1,4-8H2,2H3","RACSTWIYYYBFIV-UHFFFAOYSA-N","?, ?, ?",,"potentiometric","a/apparent","NH2%+&, NH2%+&, NH2%+&","basic",9.773333333333333
"17459","O=C([O-])C(N)C","CC(=N)C(O)O","InChI=1S/C3H7NO2/c1-2(4)3(5)6/h3-6H,1H3","KAEYVEVCQVCGQM-UHFFFAOYSA-N","?, ?","22","mean from 12","a2/apparent","COOH, NH2(+)-H","basic",9.775
"14392","NC(CCC1(=CC=CC=C1))C","CC(N)CCC1C=CC=CC=1","InChI=1S/C10H15N/c1-9(11)7-8-10-5-3-2-4-6-10/h2-6,9H,7-8,11H2,1H3","WECUIGDEWBNQJJ-UHFFFAOYSA-N","?","25","potentiometric","b/apparent","?","basic",9.78
"10216","N1(C(CCC1)CC)(C)","CCC1CCCN1C","InChI=1S/C7H15N/c1-3-7-5-4-6-8(7)2/h7H,3-6H2,1-2H3","IDQXZLKEWHBPCA-UHFFFAOYSA-N","?",,"potentiometric","b/apparent","?","basic",9.78
"11361","O=C(NCCCN(C)C)C=N[O-]","CN(C)CCCNC(=O)CN=O","InChI=1S/C7H15N3O2/c1-10(2)5-3-4-8-7(11)6-9-12/h3-6H2,1-2H3,(H,8,11)","AJMUVBXGJMTEAK-UHFFFAOYSA-N","?","25","mean from 2","a2/apparent","?","basic",9.78
"11612","NCCC1(=CC=C(C)C=C1)","CC1=CC=C(CCN)C=C1","InChI=1S/C9H13N/c1-8-2-4-9(5-3-8)6-7-10/h2-5H,6-7,10H2,1H3","VKJXAQYPOTYDLO-UHFFFAOYSA-N","?","25","potentiometric","a1/apparent","?","basic",9.78
"14513","O(C1(=CC=C(CCN)C=C1))C","COC1C=CC(CCN)=CC=1","InChI=1S/C9H13NO/c1-11-9-4-2-8(3-5-9)6-7-10/h2-5H,6-7,10H2,1H3","LTPVSOCPYWDIFU-UHFFFAOYSA-N","?","25","potentiometric","a1/apparent","?","basic",9.79
"10842","OC1(=CC=C(CCN(C)C)C=C1)","CN(C)CCC1C=CC(O)=CC=1","InChI=1S/C10H15NO/c1-11(2)8-7-9-3-5-10(12)6-4-9/h3-6,12H,7-8H2,1-2H3","KUBCEEMXQZUPDQ-UHFFFAOYSA-N","?",,"potentiometric","a/apparent","?","basic",9.8
"12498","OC1(=C(C=CC=C1)CN2(CCCCC2))","OC1C=CC=CC=1CN1CCCCC1","InChI=1S/C12H17NO/c14-12-7-3-2-6-11(12)10-13-8-4-1-5-9-13/h2-3,6-7,14H,1,4-5,8-10H2","FTKQHXNOTYHHLE-UHFFFAOYSA-N","?, ?","25","mean from 4","a1/apparent","N(1+)-H, ?","basic",9.805
"17724","O=C([O-])CN(C)C","CN(C)C=C(O)O","InChI=1S/C4H9NO2/c1-5(2)3-4(6)7/h3,6-7H,1-2H3","SMQMESHEELJFRA-UHFFFAOYSA-N","?","23","mean from 3","a1/apparent","?","basic",9.81
"12729","S2(C1(=NCCN1C(=C2)C))","CC1=CSC2=NCCN21","InChI=1S/C6H8N2S/c1-5-4-9-6-7-2-3-8(5)6/h4H,2-3H2,1H3","GOXKEFJIGQQOOV-UHFFFAOYSA-N","?","25","potentiometric","a1/apparent","?","basic",9.81
"15593","O=[N+]([O-])C1(=CC(OC(=O)CCCN(C)C)=CC=C1)","CN(C)CCC=C(O)OC1C=C(C=CC=1)[N+]([O-])=O","InChI=1S/C12H16N2O4/c1-13(2)8-4-7-12(15)18-11-6-3-5-10(9-11)14(16)17/h3,5-7,9,15H,4,8H2,1-2H3","LSJXZKLOHQMWJE-UHFFFAOYSA-N","?","20","potentiometric","a1/apparent","NMe2","basic",9.82
"16306","N23(C=C(C1(=CC=C(N(C)C)C=C1))C(CC2)CC3)","CN(C)C1C=CC(=CC=1)C1=CN2CCC1CC2","InChI=1S/C15H20N2/c1-16(2)14-5-3-12(4-6-14)15-11-17-9-7-13(15)8-10-17/h3-6,11,13H,7-10H2,1-2H3","OKWHLXQRZGJSTN-UHFFFAOYSA-N","?","25",,"a/apparent","NHE+","basic",9.82
"15913","O=C([O-])C1(NCC(C1CC(=O)[O-])C(=CC=CC(C(=O)[O-])C)C)","CC(C=CC=C(C)C1CN=C(C1C=C(O)O)C(O)O)=C(O)O","InChI=1S/C15H21NO6/c1-8(4-3-5-9(2)14(19)20)11-7-16-13(15(21)22)10(11)6-12(17)18/h3-6,10-11,15,17-22H,7H2,1-2H3","GKVYIJHIVQJOLS-UHFFFAOYSA-N","?",,,"a4/apparent","?","basic",9.82
"12676","O=C([O-])C(N)CCCC","CCCCC(=N)C(O)O","InChI=1S/C6H13NO2/c1-2-3-4-5(7)6(8)9/h6-9H,2-4H2,1H3","SBJBOUHROAKJOR-UHFFFAOYSA-N","?, ?","20","mean from 2","apparent","NH3%+&, ?","basic",9.825
"17530","S(C(=N)N)C","CSC(N)=N","InChI=1S/C2H6N2S/c1-5-2(3)4/h1H3,(H3,3,4)","SDDKIZNHOCEXTF-UHFFFAOYSA-N","?","20","potentiometric","thermodynamic","?","basic",9.83
"13235","O=C(N(CCCN(C)C)C)C=N[O-]","CN(C)CCCN(C)C(=O)CN=O","InChI=1S/C8H17N3O2/c1-10(2)5-4-6-11(3)8(12)7-9-13/h4-7H2,1-3H3","XCODUMCBZGFMHO-UHFFFAOYSA-N","?","25","potentiometric","a2/apparent","?","basic",9.83
"14601","O=C(OC(CN(CC)CC)(CC=C)C)C","CC(CC=C)(CN(CC)CC)OC(=C)O","InChI=1S/C12H23NO2/c1-6-9-12(5,15-11(4)14)10-13(7-2)8-3/h6,14H,1,4,7-10H2,2-3,5H3","JIBUIKFPCCSYOF-UHFFFAOYSA-N","?","25","potentiometric","a1/apparent","?","basic",9.85
"17689","ClC(Cl)=CCCN","NCCC=C(Cl)Cl","InChI=1S/C4H7Cl2N/c5-4(6)2-1-3-7/h2H,1,3,7H2","PQSMJIWHXMHTBL-UHFFFAOYSA-N","?","20","potentiometric","b/apparent","?","basic",9.85
"10472","O=C([O-])CCN(C)C","CN(C)CC=C(O)O","InChI=1S/C5H11NO2/c1-6(2)4-3-5(7)8/h3,7-8H,4H2,1-2H3","FGWYDGBXTVUBEW-UHFFFAOYSA-N","?","25","mean from 2","a1/apparent","?","basic",9.85
"14400","N(C(CC1(=CC=CC=C1))C)C","CNC(C)CC1C=CC=CC=1","InChI=1S/C10H15N/c1-9(11-2)8-10-6-4-3-5-7-10/h3-7,9,11H,8H2,1-2H3","MYWUZJCMWCOHBA-UHFFFAOYSA-N","?","25","potentiometric","b/apparent","?","basic",9.87
"14403","N(CC(C1(=CC=CC=C1))C)C","CNCC(C)C1C=CC=CC=1","InChI=1S/C10H15N/c1-9(8-11-2)10-6-4-3-5-7-10/h3-7,9,11H,8H2,1-2H3","AUFSOOYCQYDGES-UHFFFAOYSA-N","?","25","potentiometric","b/apparent","?","basic",9.87
"13640","O(C1(=C(OC)C=CC(=C1)CCN))C","COC1C=CC(CCN)=CC=1OC","InChI=1S/C10H15NO2/c1-12-9-4-3-8(5-6-11)7-10(9)13-2/h3-4,7H,5-6,11H2,1-2H3","ANOUKFYBOAKOIR-UHFFFAOYSA-N","?","25","potentiometric","a1/thermodynamic","?","basic",9.87
"13383","O=C(OCC1(N2(CCC(C1)CC2)))C","C=C(O)OCC1CC2CCN1CC2","InChI=1S/C10H17NO2/c1-8(12)13-7-10-6-9-2-4-11(10)5-3-9/h9-10,12H,1-7H2","OJZULYRQVNWFHO-UHFFFAOYSA-N","?","25",,"a1/apparent","?","basic",9.88
"11106","[O-]C2(=NC=1(C(=CC=CC=1)N=C2C))","CC1N=C2C=CC=CC2=NC=1O","InChI=1S/C9H8N2O/c1-6-9(12)11-8-5-3-2-4-7(8)10-6/h2-5H,1H3,(H,11,12)","BMIMNRPAEPIYDN-UHFFFAOYSA-N","?","25","potentiometric","a2/apparent","?","basic",9.88
"15097","O=C(N=C1(C=CN(C)C=C1))C2(=CC=CC=C2)","CN1C=CC(C=C1)=NC(=O)C1C=CC=CC=1","InChI=1S/C13H12N2O/c1-15-9-7-12(8-10-15)14-13(16)11-5-3-2-4-6-11/h2-10H,1H3","SLCFSGFZNRXDTH-UHFFFAOYSA-N","?",,"potentiometric","a/apparent","?","basic",9.89
"17550","ClCCCN","NCCCCl","InChI=1S/C3H8ClN/c4-2-1-3-5/h1-3,5H2","BZFKSWOGZQMOMO-UHFFFAOYSA-N","?","25","potentiometric","a1/thermodynamic","NH3(1+)","basic",9.89
"17874","[S-]C1(=NC=CC=C1)","SC1=CC=CC=N1","InChI=1S/C5H5NS/c7-5-3-1-2-4-6-5/h1-4H,(H,6,7)","WHMDPDGBKYUEMW-UHFFFAOYSA-N","?","20","mean from 2","a2/apparent","?","basic",9.89
"12990","NCCC1(=CC=CC=C1)","NCCC1C=CC=CC=1","InChI=1S/C8H11N/c9-7-6-8-4-2-1-3-5-8/h1-5H,6-7,9H2","BHHGXPLMPWCGHP-UHFFFAOYSA-N","?","23","mean from 10","a1/apparent","?","basic",9.89
"12674","O=C([O-])C(NC)C(C)C","CC(C)C(=NC)C(O)O","InChI=1S/C6H13NO2/c1-4(2)5(7-3)6(8)9/h4,6,8-9H,1-3H3","QNVVUGYLEMVHAL-UHFFFAOYSA-N","?","22","potentiometric","a2/apparent","COOH","basic",9.9
"11616","NC(CC1(=CC=CC=C1))C","CC(N)CC1C=CC=CC=1","InChI=1S/C9H13N/c1-8(10)7-9-5-3-2-4-6-9/h2-6,8H,7,10H2,1H3","KWTSXDURSIMDCE-UHFFFAOYSA-N","?","22","mean from 3","a/apparent","?","basic",9.9
"17570","OCCNC","CNCCO","InChI=1S/C3H9NO/c1-4-2-3-5/h4-5H,2-3H2,1H3","OPKOKAMJFNKNAS-UHFFFAOYSA-N","?","25","mean from 5","a1/apparent","?","basic",9.91
"17687","N(CC(C)C)(C)C","CC(C)CN(C)C","InChI=1S/C6H15N/c1-6(2)5-7(3)4/h6H,5H2,1-4H3","GDHRQDYGUDOEIZ-UHFFFAOYSA-N","?","20","conductometric","b/apparent","?","basic",9.91
"17468","O(CCCN)C","COCCCN","InChI=1S/C4H11NO/c1-6-4-2-3-5/h2-5H2,1H3","FAXDZWQIWUSWJH-UHFFFAOYSA-N","?","25",,"a1/apparent","?","basic",9.92
"17310","N1(CC=CC1)(C)","CN1CC=CC1","InChI=1S/C5H9N/c1-6-4-2-3-5-6/h2-3H,4-5H2,1H3","AHVYPIQETPWLSZ-UHFFFAOYSA-N","?","25","potentiometric","a/apparent","NH+","basic",9.92
"10773","O=C([O-])C1(NC(C(=O)[O-])CCC1)","OC(O)=C1CCCC(=N1)C(O)O","InChI=1S/C7H11NO4/c9-6(10)4-2-1-3-5(8-4)7(11)12/h6,9-12H,1-3H2","FZFLIQNLXZSRCO-UHFFFAOYSA-N","?","30","potentiometric","a2/apparent","?","basic",9.92
"11761","OC1(=CC=C(CCN)C=C1)","NCCC1=CC=C(O)C=C1","InChI=1S/C8H11NO/c9-6-5-7-1-3-8(10)4-2-7/h1-4,10H,5-6,9H2","DZGWFCGJZKJUFP-UHFFFAOYSA-N","?, ?","20","mean from 4","1/thermodynamic","NH3%+&, NH4","basic",9.92
"12744","OC1(C2(CCN(C1)CC2))","OC1CN2CCC1CC2","InChI=1S/C7H13NO/c9-7-5-8-3-1-6(7)2-4-8/h6-7,9H,1-5H2","IVLICPVPXWEGCA-UHFFFAOYSA-N","?","26","mean from 5","a1/thermodynamic","NH(+)","basic",9.93
"11629","N(CC1(=CC=C(C)C=C1))C","CC1C=CC(CNC)=CC=1","InChI=1S/C9H13N/c1-8-3-5-9(6-4-8)7-10-2/h3-6,10H,7H2,1-2H3","YDFFIGRIWDSNOZ-UHFFFAOYSA-N","?",,"potentiometric","a1/apparent","amino","basic",9.93
"13221","O=C([O-])CCC#CC#CCCCN","NCCCC#CC#CCC=C(O)O","InChI=1S/C10H13NO2/c11-9-7-5-3-1-2-4-6-8-10(12)13/h8,12-13H,5-7,9,11H2","CEDHIFXXGWMUCO-UHFFFAOYSA-N","?","20","mean from 3","b1/apparent","?","basic",9.94
"15158","N=C(NC1(=CC=CC=C1))NC2(=CC=CC=C2)","N=C(NC1C=CC=CC=1)NC1C=CC=CC=1","InChI=1S/C13H13N3/c14-13(15-11-7-3-1-4-8-11)16-12-9-5-2-6-10-12/h1-10H,(H3,14,15,16)","OWRCNXZUPFZXOS-UHFFFAOYSA-N","?","20","mean from 4","b/apparent","?","basic",9.94
"12943","[O-]C1(=[N+](C([O-])=CC=N1)C)","C[N+]1=C(O)N=CC=C1O","InChI=1S/C5H6N2O2/c1-7-4(8)2-3-6-5(7)9/h2-3H,1H3,(H,6,8,9)/p+1","LMORCYUMAWXYTJ-UHFFFAOYSA-O","?","25","mean from 3","a1/apparent","NH2+","basic",9.94
"11613","NCC(C1(=CC=CC=C1))C","CC(CN)C1C=CC=CC=1","InChI=1S/C9H13N/c1-8(7-10)9-5-3-2-4-6-9/h2-6,8H,7,10H2,1H3","AXORVIZLPOGIRG-UHFFFAOYSA-N","?","19","potentiometric","a/thermodynamic","?","basic",9.94
"15817","ClC1(=C(N)C=C(OC(C#CC)C)C(=C1)C(=O)NC2(CC3(N(C)C(C2)CC3)))","CC(C#CC)OC1=CC(N)=C(Cl)C=C1C(=O)NC1CC2CCC(C1)N2C","InChI=1S/C20H26ClN3O2/c1-4-5-12(2)26-19-11-18(22)17(21)10-16(19)20(25)23-13-8-14-6-7-15(9-13)24(14)3/h10-15H,6-9,22H2,1-3H3,(H,23,25)","RPFBSCLXMNVMRP-UHFFFAOYSA-N","?","25",,"a1/thermodynamic","N-H","basic",9.95
"17256","N(C)(C)C","CN(C)C","InChI=1S/C3H9N/c1-4(2)3/h1-3H3","GETQZCLCWQTVFV-UHFFFAOYSA-N","?","23","mean from 8","a1/apparent","?","basic",9.96
"13892","NC2(CC1(=C(C=CC=C1)CC2))","NC1CC2C=CC=CC=2CC1","InChI=1S/C10H13N/c11-10-6-5-8-3-1-2-4-9(8)7-10/h1-4,10H,5-7,11H2","LCGFVWKNXLRFIF-UHFFFAOYSA-N","?","17","potentiometric","a/apparent","?","basic",9.97
"15462","N4(C=3(C2(=C(N1(CCCC1))C=CC=C2C=CC=3)))(CCCC4)","C1CCCN1C1=CC=CC2=CC=CC(=C21)N1CCCC1","InChI=1S/C18H22N2/c1-2-12-19(11-1)16-9-5-7-15-8-6-10-17(18(15)16)20-13-3-4-14-20/h5-10H,1-4,11-14H2","GEENYBIXSRBKOG-UHFFFAOYSA-N","?","25","spectrophotometric","a1/apparent","N","basic",9.97
"13240","O=C(NCCCN(CC)C)C=N[O-]","CCN(C)CCCNC(=O)CN=O","InChI=1S/C8H17N3O2/c1-3-11(2)6-4-5-9-8(12)7-10-13/h3-7H2,1-2H3,(H,9,12)","WRLUEOMEGUUJDV-UHFFFAOYSA-N","?","25","potentiometric","a2/apparent","?","basic",9.97
"10746","N(CC1(=CC=C(C)C=C1))CCC","CC1C=CC(CNCCC)=CC=1","InChI=1S/C11H17N/c1-3-8-12-9-11-6-4-10(2)5-7-11/h4-7,12H,3,8-9H2,1-2H3","KEPDRVSVMRMGCR-UHFFFAOYSA-N","?",,"potentiometric","a1/apparent","amino","basic",9.98
"13604","N(CC1(=CC=C(C)C=C1))CCCC","CC1C=CC(CNCCCC)=CC=1","InChI=1S/C12H19N/c1-3-4-9-13-10-12-7-5-11(2)6-8-12/h5-8,13H,3-4,9-10H2,1-2H3","HJAGHNRKHZQVEK-UHFFFAOYSA-N","?",,"potentiometric","a1/apparent","amino","basic",9.98
"11125","N2(C(C1(=CC=C(C)C=C1))CCC2)","CC1=CC=C(C=C1)C1CCCN1","InChI=1S/C11H15N/c1-9-4-6-10(7-5-9)11-3-2-8-12-11/h4-7,11-12H,2-3,8H2,1H3","TXFISDWSKUHPET-UHFFFAOYSA-N","?","25","potentiometric","b/apparent","?","basic",9.99