"Molecule name","OriginalSmiles","Canonical_QSARr","InChI_Code_QSARr","InChI Key_QSARr","Salt_Solvent (Concatenate)","temp","method","type","group","basicOrAcidic","pKa"
"14905","O=C(OCCN(CC)CC)C1(=CC=CC=C1)","CCN(CCOC(=O)C1C=CC=CC=1)CC","InChI=1S/C13H19NO2/c1-3-14(4-2)10-11-16-13(15)12-8-6-5-7-9-12/h5-9H,3-4,10-11H2,1-2H3","GEVPHAFTDXTZHY-UHFFFAOYSA-N","?",,"potentiometric","a/apparent","?","basic",8.9
"15192","OC(CN(CC(O)C)CCCCCC)CC","CC(O)CN(CC(O)CC)CCCCCC","InChI=1S/C13H29NO2/c1-4-6-7-8-9-14(10-12(3)15)11-13(16)5-2/h12-13,15-16H,4-11H2,1-3H3","TUHHIWDVUXPAEF-UHFFFAOYSA-N","?","20","potentiometric","a1/apparent","-NH3%+&","basic",8.9
"16621","S2(C(C(C=1(SC=CC=1))=CC(N(CC)CC)C)=CC=C2)","CC(C=C(C1=CC=CS1)C1=CC=CS1)N(CC)CC","InChI=1S/C16H21NS2/c1-4-17(5-2)13(3)12-14(15-8-6-10-18-15)16-9-7-11-19-16/h6-13H,4-5H2,1-3H3","CBYWMRHUUVRIAF-UHFFFAOYSA-N","?","25","potentiometric","a/apparent","?","basic",8.9
"14787","S(=O)(=O)(C1(=CC(OC)=C(OC)C(=C1)C(=O)NC3(CC4(N(CC2(=CC=CC=C2))C(C3)CC4))))CC","CCS(=O)(=O)C1C=C(C(OC)=C(C=1)OC)C(=O)NC1CC2CCC(C1)N2CC1C=CC=CC=1","InChI=1S/C25H32N2O5S/c1-4-33(29,30)21-14-22(24(32-3)23(15-21)31-2)25(28)26-18-12-19-10-11-20(13-18)27(19)16-17-8-6-5-7-9-17/h5-9,14-15,18-20H,4,10-13,16H2,1-3H3,(H,26,28)","CXCNTYPBFHAHEJ-UHFFFAOYSA-N","?","25","potentiometric","a1/thermodynamic","?","basic",8.9
"11357","O=C(NOCCC(N)C(=O)[O-])N","NC(=O)NOCCC(=N)C(O)O","InChI=1S/C5H11N3O4/c6-3(4(9)10)1-2-12-8-5(7)11/h4,6,9-10H,1-2H2,(H3,7,8,11)","SNKOLBVNBIKETJ-UHFFFAOYSA-N","?","30","potentiometric","b1/apparent","?","basic",8.9
"11894","OC(CN(CCO)CC)C","CCN(CCO)CC(C)O","InChI=1S/C7H17NO2/c1-3-8(4-5-9)6-7(2)10/h7,9-10H,3-6H2,1-2H3","KYOOVMQHUPHBNL-UHFFFAOYSA-N","?","20","potentiometric","a1/apparent","-NH3%+&","basic",8.9
"14114","OC(CN(CCO)CCC)C","CCCN(CCO)CC(C)O","InChI=1S/C8H19NO2/c1-3-4-9(5-6-10)7-8(2)11/h8,10-11H,3-7H2,1-2H3","FPNHOTHCCITCDN-UHFFFAOYSA-N","?","20","potentiometric","a1/apparent","-NH3%+&","basic",8.9
"14113","OC(CN(CC(O)C)C)CC","CC(O)CN(C)CC(O)CC","InChI=1S/C8H19NO2/c1-4-8(11)6-9(3)5-7(2)10/h7-8,10-11H,4-6H2,1-3H3","OIBZFXSCEVREBU-UHFFFAOYSA-N","?","20","potentiometric","a1/apparent","-NH3%+&","basic",8.9
"11856","N(CCNCCC)CCC","CCCNCCNCCC","InChI=1S/C8H20N2/c1-3-5-9-7-8-10-6-4-2/h9-10H,3-8H2,1-2H3","VATUKUMHBXZSCD-UHFFFAOYSA-N","?, ?","25","potentiometric","a2/apparent","?, ?","basic",8.9
"11335","OC(CN(CC(O)C)CCC)C","CCCN(CC(C)O)CC(C)O","InChI=1S/C9H21NO2/c1-4-5-10(6-8(2)11)7-9(3)12/h8-9,11-12H,4-7H2,1-3H3","VSUZYIMAWHNPOP-UHFFFAOYSA-N","?",,"potentiometric","a/apparent","prot.","basic",8.9
"13208","O=C(OCCNCC(C)C)C(=C)C","CC(=C)C(=O)OCCNCC(C)C","InChI=1S/C10H19NO2/c1-8(2)7-11-5-6-13-10(12)9(3)4/h8,11H,3,5-7H2,1-2,4H3","DCGRGVIPGIQHBE-UHFFFAOYSA-N","?","25","potentiometric","a1/thermodynamic","?","basic",8.91
"15498","O=C(NC2(CC3(N(CC1(=CC=CC=C1))C(C2)CC3)))C4(=C(OC)C(OC)=CC=C4)","COC1=CC=CC(C(=O)NC2CC3CCC(C2)N3CC2C=CC=CC=2)=C1OC","InChI=1S/C23H28N2O3/c1-27-21-10-6-9-20(22(21)28-2)23(26)24-17-13-18-11-12-19(14-17)25(18)15-16-7-4-3-5-8-16/h3-10,17-19H,11-15H2,1-2H3,(H,24,26)","PCIWCYUKRZFCMF-UHFFFAOYSA-N","?, ?","25","potentiometric","a1/apparent","?, ?","basic",8.91
"10383","N(CCN)CCCC","CCCCNCCN","InChI=1S/C6H16N2/c1-2-3-5-8-6-4-7/h8H,2-7H2,1H3","DFPGBRPWDZFIPP-UHFFFAOYSA-N","?, ?","25","potentiometric","a2/apparent","?, ?","basic",8.915000000000001
"13737","O3(C(C1(=CN2(CCC1CC2)))=CC=C3)","C1CC2CCN1C=C2C1=CC=CO1","InChI=1S/C11H13NO/c1-2-11(13-7-1)10-8-12-5-3-9(10)4-6-12/h1-2,7-9H,3-6H2","HNQCDUJRXDPLHW-UHFFFAOYSA-N","?","25","potentiometric","a1/apparent","?","basic",8.92
"16313","[O-]C3(=C(C1(=NC=2(C=CC=CC=2(N1C))))C=CC=C3)","CN1C(=NC2C=CC=CC1=2)C1=CC=CC=C1O","InChI=1S/C14H12N2O/c1-16-12-8-4-3-7-11(12)15-14(16)10-6-2-5-9-13(10)17/h2-9,17H,1H3","DBUIKLZNAQEAEE-UHFFFAOYSA-N","?","25",,"a2/apparent","?","basic",8.92
"14753","S(=O)(=O)(C1(=CC(OC)=C(OC)C(=C1)C(=O)NC3(CC4(N(CC2(=CC=CC=C2))C(C3)CC4))))C","CS(=O)(=O)C1C=C(C(OC)=C(C=1)OC)C(=O)NC1CC2CCC(C1)N2CC1C=CC=CC=1","InChI=1S/C24H30N2O5S/c1-30-22-14-20(32(3,28)29)13-21(23(22)31-2)24(27)25-17-11-18-9-10-19(12-17)26(18)15-16-7-5-4-6-8-16/h4-8,13-14,17-19H,9-12,15H2,1-3H3,(H,25,27)","QTPKNUTVMKHQLY-UHFFFAOYSA-N","?","25","potentiometric","a1/thermodynamic","?","basic",8.92
"13929","OC2(C1(N(CC=C1CO)CC2))","OC1CCN2CC=C(CO)C21","InChI=1S/C8H13NO2/c10-5-6-1-3-9-4-2-7(11)8(6)9/h1,7-8,10-11H,2-5H2","HJSJELVDQOXCHO-UHFFFAOYSA-N","?","26","potentiometric","a/apparent","NH+","basic",8.92
"17552","[Br]CCCN","NCCCBr","InChI=1S/C3H8BrN/c4-2-1-3-5/h1-3,5H2","ZTGQZSKPSJUEBU-UHFFFAOYSA-N","?","21","potentiometric","a/apparent","?","basic",8.93
"13348","O(C2(=CC=1(C(=NC=CC=1N)C=C2)))C","COC1=CC2=C(N)C=CN=C2C=C1","InChI=1S/C10H10N2O/c1-13-7-2-3-10-8(6-7)9(11)4-5-12-10/h2-6H,1H3,(H2,11,12)","PHGNGVYUHOARGF-UHFFFAOYSA-N","?","30","mean from 2","a/apparent","?","basic",8.94
"12212","OC1(=C(C=C(C)C=C1)CN(CC)CC)","CC1C=CC(O)=C(CN(CC)CC)C=1","InChI=1S/C12H19NO/c1-4-13(5-2)9-11-8-10(3)6-7-12(11)14/h6-8,14H,4-5,9H2,1-3H3","BPIIGTWIPYOEIV-UHFFFAOYSA-N","?","25","mean from 5","a1/apparent","N(1+)-H","basic",8.94
"16511","O2(C1(=C(O)C=CC5(=C1C34(C2C(O)CCC3C(N(C)CC4)C5))))","CN1CCC23C4OC5C2=C(CC1C3CCC4O)C=CC=5O","InChI=1S/C17H21NO3/c1-18-7-6-17-10-3-5-13(20)16(17)21-15-12(19)4-2-9(14(15)17)8-11(10)18/h2,4,10-11,13,16,19-20H,3,5-8H2,1H3","IJVCSMSMFSCRME-UHFFFAOYSA-N","?","20","mean from 2","b/apparent","?","basic",8.94
"11751","OC(C1(=CC=CC=C1))CN","NCC(O)C1C=CC=CC=1","InChI=1S/C8H11NO/c9-6-8(10)7-4-2-1-3-5-7/h1-5,8,10H,6,9H2","ULSIYEODSMZIPX-UHFFFAOYSA-N","?","25","mean from 2","a1/apparent","?","basic",8.94
"14462","O(C1(=C(O)C=CC(=C1)CN))C","COC1C=C(CN)C=CC=1O","InChI=1S/C8H11NO2/c1-11-8-4-6(5-9)2-3-7(8)10/h2-4,10H,5,9H2,1H3","WRPWWVNUCXQDQV-UHFFFAOYSA-N","?","25","mean from 2","a1/thermodynamic","?","basic",8.94
"16508","O2(C1(=C(OC)C=CC5(=C1C34(C2CCCC3C(NCC4)C5O))))","COC1C=CC2C(O)C3NCCC45C(CCCC43)OC=1C5=2","InChI=1S/C17H21NO3/c1-20-11-6-5-9-13-16(11)21-12-4-2-3-10-14(15(9)19)18-8-7-17(10,12)13/h5-6,10,12,14-15,18-19H,2-4,7-8H2,1H3","OTTBVWURSPABRG-UHFFFAOYSA-N","?, ?",,"potentiometric","a/apparent","?, ?","basic",8.945
"16135","S2(C(C(C=1(SC=CC=1))=CC(N(C)C)C)=CC=C2)","CC(C=C(C1=CC=CS1)C1=CC=CS1)N(C)C","InChI=1S/C14H17NS2/c1-11(15(2)3)10-12(13-6-4-8-16-13)14-7-5-9-17-14/h4-11H,1-3H3","CANBGVXYBPOLRR-UHFFFAOYSA-N","?","25","potentiometric","a/apparent","?","basic",8.95
"15254","S1(C(C(C(=O)[O-])N2(C1C([NH+]=C2CCCC(N)C(=O)[O-])C(=O)[O-]))(C)C)","CC1(C)SC2C(N=C(CCCC(=N)C(O)O)N2C1=C(O)O)=C(O)O","InChI=1S/C14H21N3O6S/c1-14(2)9(13(22)23)17-7(5-3-4-6(15)11(18)19)16-8(12(20)21)10(17)24-14/h10-11,15,18-23H,3-5H2,1-2H3","WTOBBAMLNCZDKT-UHFFFAOYSA-N","?, ?","20","potentiometric","a2/apparent","?, ?","basic",8.95
"17307","N=C1(CCCC1)","N=C1CCCC1","InChI=1S/C5H9N/c6-5-3-1-2-4-5/h6H,1-4H2","HMZHPDZCVINDPO-UHFFFAOYSA-N","?",,"potentiometric","a/apparent","?","basic",8.95
"14050","[O-]C1(=NC=NC=2(C1=NC=CC=2))","OC1N=CN=C2C=CC=NC2=1","InChI=1S/C7H5N3O/c11-7-6-5(9-4-10-7)2-1-3-8-6/h1-4H,(H,9,10,11)","FSKYZRCACCHDGR-UHFFFAOYSA-N","?","20","potentiometric","a/apparent","?","basic",8.95
"15603","O=C(NC1(=C(C=CC=C1C)C))CCN(CC)CC","CC1C=CC=C(C)C=1/N=C(/O)\CCN(CC)CC","InChI=1S/C15H24N2O/c1-5-17(6-2)11-10-14(18)16-15-12(3)8-7-9-13(15)4/h7-9H,5-6,10-11H2,1-4H3,(H,16,18)","HZRZNZDFRXKYTA-UHFFFAOYSA-N","?",,,"a/thermodynamic","?","basic",8.96
"16544","N1(CCCCC1)(CCC(C2(=CC=CC=C2))C3(=CC=CC=C3))","C(CN1CCCCC1)C(C1C=CC=CC=1)C1C=CC=CC=1","InChI=1S/C20H25N/c1-4-10-18(11-5-1)20(19-12-6-2-7-13-19)14-17-21-15-8-3-9-16-21/h1-2,4-7,10-13,20H,3,8-9,14-17H2","JXJPYHDHJZJWRI-UHFFFAOYSA-N","?","25","potentiometric","a/apparent","NH+","basic",8.96
"11891","O=C(OCCNC)C(=C)C","CC(=C)C(=O)OCCNC","InChI=1S/C7H13NO2/c1-6(2)7(9)10-5-4-8-3/h8H,1,4-5H2,2-3H3","DEGZUQBZHACZKW-UHFFFAOYSA-N","?","25","potentiometric","a1/thermodynamic","?","basic",8.96
"15224","O2(C1(=C(C=CC=C1)CNCCCNCC3(=C(OCCC2)C=CC=C3)))","C1NCCCNCC2C=CC=CC=2OCCCOC2C=CC=CC=21","InChI=1S/C20H26N2O2/c1-3-9-19-17(7-1)15-21-11-5-12-22-16-18-8-2-4-10-20(18)24-14-6-13-23-19/h1-4,7-10,21-22H,5-6,11-16H2","SPDHVOJEOGMDNX-UHFFFAOYSA-N","?, ?","25","mean from 2","b1/apparent","HN%+&-H, HN%+&-H","basic",8.965
"12388","[N+]2(=CC=1(C(=CC=CC=1)C=C2))(CCCN)","NCCC[N+]1=CC2=CC=CC=C2C=C1","InChI=1S/C12H15N2/c13-7-3-8-14-9-6-11-4-1-2-5-12(11)10-14/h1-2,4-6,9-10H,3,7-8,13H2/q+1","YBKAKZNFJQOFDI-UHFFFAOYSA-N","?","25","potentiometric","a1/apparent","N-H","basic",8.97
"11638","N(CC1(=CC=CC=C1))(C)C","CN(C)CC1C=CC=CC=1","InChI=1S/C9H13N/c1-10(2)8-9-6-4-3-5-7-9/h3-7H,8H2,1-2H3","XXBDWLFCJWSEKW-UHFFFAOYSA-N","?","25","mean from 5","a1/apparent","NH3(1+)","basic",8.97
"13223","P(=O)([O-])([O-])C(P(=O)([O-])[O-])CN(C)C","CN(C)CC(P(O)(O)=O)P(O)(O)=O","InChI=1S/C4H13NO6P2/c1-5(2)3-4(12(6,7)8)13(9,10)11/h4H,3H2,1-2H3,(H2,6,7,8)(H2,9,10,11)","HOUDPDGFSCNOKT-UHFFFAOYSA-N","?","25","potentiometric","a3/apparent","PO3H2","basic",8.98
"14013","N2(=C(C1(=NCCN1))C=CC=C2)","C1CNC(=N1)C1C=CC=CN=1","InChI=1S/C8H9N3/c1-2-4-9-7(3-1)8-10-5-6-11-8/h1-4H,5-6H2,(H,10,11)","BPPSPXOWNGOEGL-UHFFFAOYSA-N","?","25","potentiometric","a/apparent","?","basic",8.98
"14007","[O-]C1(=NC(N)=C2(NC=NC2(=N1)))","NC1N=C(O)N=C2N=CNC2=1","InChI=1S/C5H5N5O/c6-3-2-4(8-1-7-2)10-5(11)9-3/h1H,(H4,6,7,8,9,10,11)","DRAVOWXCEBXPTN-UHFFFAOYSA-N","?","20","potentiometric","a2/apparent","?","basic",8.99
"17857","N1(C(C)C1C)(CC)","CCN1C(C)C1C","InChI=1S/C6H13N/c1-4-7-5(2)6(7)3/h5-6H,4H2,1-3H3","LUNWJKXZDYXTDB-UHFFFAOYSA-N","?, ?","24","potentiometric","b/thermodynamic","?, ?","basic",8.99
"11851","N(C(C)C)CCNC(C)C","CC(C)NCCNC(C)C","InChI=1S/C8H20N2/c1-7(2)9-5-6-10-8(3)4/h7-10H,5-6H2,1-4H3","MFIGJRRHGZYPDD-UHFFFAOYSA-N","?, ?","25","potentiometric","a2/apparent","?, ?","basic",8.995000000000001
"10843","O=C(C1(=CC=CC=C1))CCNC","CNCC=C(O)C1C=CC=CC=1","InChI=1S/C10H13NO/c1-11-8-7-10(12)9-5-3-2-4-6-9/h2-7,11-12H,8H2,1H3","OEGNMZUGSWNAGF-UHFFFAOYSA-N","?","20",,"b/apparent","?","basic",9.0
"17061","O=C1(OC(C2(CNC(C2(C1))C(=O)[O-]))(C)C)","CC1(C)OC(O)=CC2C1CN=C2C(O)O","InChI=1S/C10H15NO4/c1-10(2)6-4-11-8(9(13)14)5(6)3-7(12)15-10/h3,5-6,9,12-14H,4H2,1-2H3","ADVUYKHOGSPFMH-UHFFFAOYSA-N","?",,,"a2/apparent","?","basic",9.0
"12562","[O-]C=1(N(N=C(C=1)C)C2(CCN(C)CC2))","CN1CCC(CC1)N1N=C(C)C=C1O","InChI=1S/C10H17N3O/c1-8-7-10(14)13(11-8)9-3-5-12(2)6-4-9/h7,9,14H,3-6H2,1-2H3","CIUSLKWBNSPJMT-UHFFFAOYSA-N","?",,"potentiometric","a2/apparent","?","basic",9.0
"13212","OC(CN(CC(O)C)CCC)CC","CC(O)CN(CCC)CC(O)CC","InChI=1S/C10H23NO2/c1-4-6-11(7-9(3)12)8-10(13)5-2/h9-10,12-13H,4-8H2,1-3H3","KRKCAVIROZKONS-UHFFFAOYSA-N","?","20","potentiometric","a1/apparent","-NH3%+&","basic",9.0
"14885","OC1(=C(C=C(C)C=C1C(N)CO)C(N)CO)","CC1=CC(C(N)CO)=C(O)C(=C1)C(N)CO","InChI=1S/C11H18N2O3/c1-6-2-7(9(12)4-14)11(16)8(3-6)10(13)5-15/h2-3,9-10,14-16H,4-5,12-13H2,1H3","ACUFTTZPKCFWBZ-UHFFFAOYSA-N","?","23.9","potentiometric","a2/apparent","NH2(+)-H","basic",9.0
"12299","OC(CN(CCO)CCCCCC)C","CCCCCCN(CCO)CC(C)O","InChI=1S/C11H25NO2/c1-3-4-5-6-7-12(8-9-13)10-11(2)14/h11,13-14H,3-10H2,1-2H3","RMBUNFHCGLJEEO-UHFFFAOYSA-N","?","20","potentiometric","a1/apparent","-NH3%+&","basic",9.0
"12298","OC(CN(CC(O)CC)CCC)CC","CCCN(CC(O)CC)CC(O)CC","InChI=1S/C11H25NO2/c1-4-7-12(8-10(13)5-2)9-11(14)6-3/h10-11,13-14H,4-9H2,1-3H3","DBNQJADGSCPGHO-UHFFFAOYSA-N","?","20","potentiometric","a1/apparent","-NH3%+&","basic",9.0
"15835","O=C3(C1(=C(C=C2(OCOC2(=C1)))CCN(C)CC4(=C(C3)C=CC(=C4O)OC)))","COC1C=CC2C=C(O)C3C=C4OCOC4=CC=3CCN(C)CC=2C=1O |t:6|","InChI=1S/C20H21NO5/c1-21-6-5-13-8-18-19(26-11-25-18)9-14(13)16(22)7-12-3-4-17(24-2)20(23)15(12)10-21/h3-4,7-9,22-23H,5-6,10-11H2,1-2H3/b16-7+","GGPLDIPQWCQXMK-FRKPEAEDSA-N","?","25","spectrophotometric","a1/apparent","?","basic",9.0
"10145","O=C1(NC(=O)CC1N)","N=C1CC(=O)NC1O","InChI=1S/C4H6N2O2/c5-2-1-3(7)6-4(2)8/h4-5,8H,1H2,(H,6,7)","BVQQZCKBHKITQU-UHFFFAOYSA-N","?",,"potentiometric","a2/apparent","?","basic",9.0
"10819","O=C([O-])C(N)(C1(=CC=CC=C1))C","CC(N)(C(O)=O)C1C=CC=CC=1","InChI=1S/C9H11NO2/c1-9(10,8(11)12)7-5-3-2-4-6-7/h2-6H,10H2,1H3,(H,11,12)","HTCSFFGLRQDZDE-UHFFFAOYSA-N","?","30",,"a2/apparent","?","basic",9.0
"14306","N(C1(=CC=CC=C1))=CN(C)C","CN(C)C=NC1C=CC=CC=1","InChI=1S/C9H12N2/c1-11(2)8-10-9-6-4-3-5-7-9/h3-8H,1-2H3","SRPCLECGIYMIMN-UHFFFAOYSA-N","?","25","potentiometric","a1/apparent","N=C-H","basic",9.0
"11330","OC(CN(CCO)CCC)CC","CCCN(CCO)CC(O)CC","InChI=1S/C9H21NO2/c1-3-5-10(6-7-11)8-9(12)4-2/h9,11-12H,3-8H2,1-2H3","GGRDUAOMTXPAHX-UHFFFAOYSA-N","?","20","potentiometric","a1/apparent","-NH3%+&","basic",9.0
"14086","O(CCN(C)C)CCN(C)C","CN(C)CCOCCN(C)C","InChI=1S/C8H20N2O/c1-9(2)5-7-11-8-6-10(3)4/h5-8H2,1-4H3","GTEXIOINCJRBIO-UHFFFAOYSA-N","?, ?",,"potentiometric","a2/apparent","?, ?","basic",9.005
"17111","[Si](OC2(CN(C1(CCCCC1))C2))(C)(C)C","C[Si](C)(C)OC1CN(C1)C1CCCCC1","InChI=1S/C12H25NOSi/c1-15(2,3)14-12-9-13(10-12)11-7-5-4-6-8-11/h11-12H,4-10H2,1-3H3","NJVTYKJYGRZPSC-UHFFFAOYSA-N","?","20","potentiometric","a1/apparent","?","basic",9.02
"10811","O(C1(=CC=C(C(O)CN)C=C1))C","COC1C=CC(=CC=1)C(O)CN","InChI=1S/C9H13NO2/c1-12-8-4-2-7(3-5-8)9(11)6-10/h2-5,9,11H,6,10H2,1H3","LQEPONWCAMNCOY-UHFFFAOYSA-N","?","25","potentiometric","a1/apparent","?","basic",9.02
"16636","O=C(OCC)C2(C1(=CC=CC=C1))(CCN(CC)CC2)","CCN1CCC(CC1)(C(=O)OCC)C1C=CC=CC=1","InChI=1S/C16H23NO2/c1-3-17-12-10-16(11-13-17,15(18)19-4-2)14-8-6-5-7-9-14/h5-9H,3-4,10-13H2,1-2H3","LBILWUCGKPKJPO-UHFFFAOYSA-N","?","24","potentiometric","a1/apparent","?","basic",9.03
"12970","O(C1(=C(N)C=CN=C1))C","COC1C=NC=CC=1N","InChI=1S/C6H8N2O/c1-9-6-4-8-3-2-5(6)7/h2-4H,1H3,(H2,7,8)","GPMHHELOMRCBRN-UHFFFAOYSA-N","?","20","potentiometric","a1/apparent","?","basic",9.03
"11884","S(CCN(CC)CC)CC","CCSCCN(CC)CC","InChI=1S/C8H19NS/c1-4-9(5-2)7-8-10-6-3/h4-8H2,1-3H3","WVRGBWUJUOZOKC-UHFFFAOYSA-N","?","17","potentiometric","b/apparent","?","basic",9.03
"13302","N1(CCCC1)(CCCN2(CCCC2))","C(CCN1CCCC1)N1CCCC1","InChI=1S/C11H22N2/c1-2-7-12(6-1)10-5-11-13-8-3-4-9-13/h1-11H2","JMZLEIAXMAFQAO-UHFFFAOYSA-N","?, ?","25","potentiometric","a2/thermodynamic","NH+, NH+","basic",9.035
"17714","OCCNCCO","OCCNCCO","InChI=1S/C4H11NO2/c6-3-1-5-2-4-7/h5-7H,1-4H2","ZBCBWPMODOFKDW-UHFFFAOYSA-N","?","59","mean from 8","a1/apparent","NH","basic",9.04
"14537","ClC1(=CC=C(C(O)CN)C=C1)","NCC(O)C1C=CC(Cl)=CC=1","InChI=1S/C8H10ClNO/c9-7-3-1-6(2-4-7)8(11)5-10/h1-4,8,11H,5,10H2","QPHAZZJNYDEVHL-UHFFFAOYSA-N","?","25","potentiometric","a1/apparent","?","basic",9.04
"16023","O1(C(=CC=C1)C2(O)(C3(CCN(C2)CC3)))","OC1(CN2CCC1CC2)C1=CC=CO1","InChI=1S/C11H15NO2/c13-11(10-2-1-7-14-10)8-12-5-3-9(11)4-6-12/h1-2,7,9,13H,3-6,8H2","TYIYFJCSVMOZCT-UHFFFAOYSA-N","?","25","potentiometric","a1/apparent","?","basic",9.06
"14769","OC1(C3(C(C2(CCC(CC2(C1))O)(C))CCC4(C3CCC4C(CCCNCC5(=CC=CC=C5))C)(C)))","CC(CCCNCC1C=CC=CC=1)C1CCC2C3C(CCC21C)C1(C)CCC(O)CC1CC3O","InChI=1S/C31H49NO2/c1-21(8-7-17-32-20-22-9-5-4-6-10-22)25-11-12-26-29-27(14-16-31(25,26)3)30(2)15-13-24(33)18-23(30)19-28(29)34/h4-6,9-10,21,23-29,32-34H,7-8,11-20H2,1-3H3","GQZKYQKOYWXKEL-UHFFFAOYSA-N","?, ?","25","potentiometric","a1/thermodynamic","-NH2(1+)-, -NH21+)-","basic",9.06
"10309","N1(=CC(N)=C(N)C=C1)","NC1C=NC=CC=1N","InChI=1S/C5H7N3/c6-4-1-2-8-3-5(4)7/h1-3H,7H2,(H2,6,8)","OYTKINVCDFNREN-UHFFFAOYSA-N","?","20","mean from 2","a1/apparent","?","basic",9.06
"14519","OC(C1(=CC=C(C)C=C1))CN","CC1=CC=C(C=C1)C(O)CN","InChI=1S/C9H13NO/c1-7-2-4-8(5-3-7)9(11)6-10/h2-5,9,11H,6,10H2,1H3","JHBXVBYRGVHEAH-UHFFFAOYSA-N","?","25","potentiometric","a1/apparent","?","basic",9.06
"14811","O=C(NC2(CC3(N(CC1(=CC=CC=C1))C(C2)CC3)))C4(=C(OC)C(OC)=CC(=C4)N)","COC1=CC(N)=CC(C(=O)NC2CC3CCC(C2)N3CC2C=CC=CC=2)=C1OC","InChI=1S/C23H29N3O3/c1-28-21-11-16(24)10-20(22(21)29-2)23(27)25-17-12-18-8-9-19(13-17)26(18)14-15-6-4-3-5-7-15/h3-7,10-11,17-19H,8-9,12-14,24H2,1-2H3,(H,25,27)","VEQVDXLDBIEVMC-UHFFFAOYSA-N","?","25","potentiometric","a1/thermodynamic","?","basic",9.07
"14771","OC1(C4(C(C2(CCC3(C(C2(C1))(CCC(C3)O)C)))CCC4C(CCCNCC5(=CC=CC=C5))C)(C))","CC(CCCNCC1C=CC=CC=1)C1CCC2C3CCC4CC(O)CCC4(C)C3CC(O)C21C","InChI=1S/C31H49NO2/c1-21(8-7-17-32-20-22-9-5-4-6-10-22)26-13-14-27-25-12-11-23-18-24(33)15-16-30(23,2)28(25)19-29(34)31(26,27)3/h4-6,9-10,21,23-29,32-34H,7-8,11-20H2,1-3H3","BGUYOUKVAGWEPC-UHFFFAOYSA-N","?","25","potentiometric","a1/thermodynamic","-NH21+)-","basic",9.07
"10384","N(CCNCC)CC","CCNCCNCC","InChI=1S/C6H16N2/c1-3-7-5-6-8-4-2/h7-8H,3-6H2,1-2H3","CJKRXEBLWJVYJD-UHFFFAOYSA-N","?, ?","25","potentiometric","a2/apparent","?, ?","basic",9.08
"14775","[P+](C1(=CC=CC=C1))(C2(=CC=CC=C2))(C3(=CC=CC=C3))C5(C4(=C(C=CC(=C4)OC)C6(=C5C=CC=C6)))","COC1=CC2C(C3C=CC=CC=3C=2C=C1)[P+](C1C=CC=CC=1)(C1C=CC=CC=1)C1C=CC=CC=1","InChI=1S/C32H26OP/c1-33-24-21-22-29-28-19-11-12-20-30(28)32(31(29)23-24)34(25-13-5-2-6-14-25,26-15-7-3-8-16-26)27-17-9-4-10-18-27/h2-23,32H,1H3/q+1","KGLKTRHBNWILBW-UHFFFAOYSA-N","?","25","spectrophotometric","a1/apparent","?","basic",9.09
"17641","NCC(CN)(C)C","CC(C)(CN)CN","InChI=1S/C5H14N2/c1-5(2,3-6)4-7/h3-4,6-7H2,1-2H3","DDHUNHGZUHZNKB-UHFFFAOYSA-N","?, ?","29","mean from 2","a1/apparent","?, ?","basic",9.09
"12297","OC(CN(CCO)CCCCC)CC","CCCCCN(CCO)CC(O)CC","InChI=1S/C11H25NO2/c1-3-5-6-7-12(8-9-13)10-11(14)4-2/h11,13-14H,3-10H2,1-2H3","MJDBETNCJHUQEO-UHFFFAOYSA-N","?","20","potentiometric","a1/apparent","-NH3%+&","basic",9.1
"14605","OC(CN(CCO)CCCCCC)CC","CCCCCCN(CCO)CC(O)CC","InChI=1S/C12H27NO2/c1-3-5-6-7-8-13(9-10-14)11-12(15)4-2/h12,14-15H,3-11H2,1-2H3","LUABKMSIUURSRU-UHFFFAOYSA-N","?","20","potentiometric","a1/apparent","-NH3%+&","basic",9.1
"14606","OC(CN(CC(O)C)CCCCC)CC","CC(O)CN(CC(O)CC)CCCCC","InChI=1S/C12H27NO2/c1-4-6-7-8-13(9-11(3)14)10-12(15)5-2/h11-12,14-15H,4-10H2,1-3H3","KNAFJKZEKZZHRU-UHFFFAOYSA-N","?","20","potentiometric","a1/apparent","-NH3%+&","basic",9.1
"15890","N(C1(=CC=CC=C1))=C(NC2(=CC=CC=C2))NC3(=CC=CC=C3)","C1=CC=CC=C1N=C(NC1C=CC=CC=1)NC1C=CC=CC=1","InChI=1S/C19H17N3/c1-4-10-16(11-5-1)20-19(21-17-12-6-2-7-13-17)22-18-14-8-3-9-15-18/h1-15H,(H2,20,21,22)","FUPAJKKAHDLPAZ-UHFFFAOYSA-N","?","25","potentiometric","a/thermodynamic","?","basic",9.1
"17223","NC1(CC1)","NC1CC1","InChI=1S/C3H7N/c4-3-1-2-3/h3H,1-2,4H2","HTJDQJBWANPRPF-UHFFFAOYSA-N","?","25",,"b1/apparent","?","basic",9.1
"11552","O=C([O-])C1(=C(N)C=CN=C1)","NC1=CC=NC=C1C(O)=O","InChI=1S/C6H6N2O2/c7-5-1-2-8-3-4(5)6(9)10/h1-3H,(H2,7,8)(H,9,10)","IASBMUIXBJNMDW-UHFFFAOYSA-N","?","25","spectrophotometric","a1/apparent","?","basic",9.1
"14112","OC(CN(CCO)CC)CC","CCN(CCO)CC(O)CC","InChI=1S/C8H19NO2/c1-3-8(11)7-9(4-2)5-6-10/h8,10-11H,3-7H2,1-2H3","NLVRGUUNRBNCGX-UHFFFAOYSA-N","?","20","potentiometric","a1/apparent","-NH3%+&","basic",9.1
"13877","[O-]C2(=NC=1(C(=CC=CC=1)N=C2))","OC1=CN=C2C=CC=CC2=N1","InChI=1S/C8H6N2O/c11-8-5-9-6-3-1-2-4-7(6)10-8/h1-5H,(H,10,11)","FFRYUAVNPBUEIC-UHFFFAOYSA-N","?","24","mean from 2","a2/apparent","?","basic",9.1
"10635","N(C1(=CC(=CC=C1)C))=CN(C)C","CC1C=C(C=CC=1)N=CN(C)C","InChI=1S/C10H14N2/c1-9-5-4-6-10(7-9)11-8-12(2)3/h4-8H,1-3H3","NCXQXIRXTWIUDZ-UHFFFAOYSA-N","?","25","potentiometric","a1/apparent","N=C-H","basic",9.11
"14074","N(CC=C)CCCNCC=C","C=CCNCCCNCC=C","InChI=1S/C9H18N2/c1-3-6-10-8-5-9-11-7-4-2/h3-4,10-11H,1-2,5-9H2","AXZLGJYOBMKFHV-UHFFFAOYSA-N","?, ?","22","potentiometric","a1/apparent","?, ?","basic",9.11
"13207","O=C(OCCNCCCC)C(=C)C","CC(=C)C(=O)OCCNCCCC","InChI=1S/C10H19NO2/c1-4-5-6-11-7-8-13-10(12)9(2)3/h11H,2,4-8H2,1,3H3","NMGPHUOPSWFUEB-UHFFFAOYSA-N","?","25","potentiometric","a1/thermodynamic","?","basic",9.12
"14931","O=C(NC1(=CC(=CC=C1)CN(C)C))C=N[O-]","CN(C)CC1C=C(C=CC=1)NC(=O)CN=O","InChI=1S/C11H15N3O2/c1-14(2)8-9-4-3-5-10(6-9)13-11(15)7-12-16/h3-6H,7-8H2,1-2H3,(H,13,15)","YHTIIEGYPYGUEY-UHFFFAOYSA-N","?","25","potentiometric","a2/apparent","?","basic",9.12
"15965","[Br]C1(=C(OC)C(=C([O-])C(=C1)[Br])C(=O)NCC2(N(CCC2)CC))","CCN1CCCC1CNC(=O)C1=C(O)C(Br)=CC(Br)=C1OC","InChI=1S/C15H20Br2N2O3/c1-3-19-6-4-5-9(19)8-18-15(21)12-13(20)10(16)7-11(17)14(12)22-2/h7,9,20H,3-6,8H2,1-2H3,(H,18,21)","JNFBCMWINGLNPB-UHFFFAOYSA-N","?","25","potentiometric","a2/apparent","NH","basic",9.12