"Molecule name","OriginalSmiles","Canonical_QSARr","InChI_Code_QSARr","InChI Key_QSARr","Salt_Solvent (Concatenate)","temp","method","type","group","basicOrAcidic","pKa"
"16540","OC=1(N(N=C(C=1CCC)C2(=CC=CC=C2))C3(=CC=CC=C3))","CCCC1C(=NN(C=1O)C1C=CC=CC=1)C1C=CC=CC=1","InChI=1S/C18H18N2O/c1-2-9-16-17(14-10-5-3-6-11-14)19-20(18(16)21)15-12-7-4-8-13-15/h3-8,10-13,21H,2,9H2,1H3","CCJMINZNZLZDFY-UHFFFAOYSA-N","?",,"potentiometric","a/apparent","?","acidic",7.0
"10728","OC1(=C(C=C(C)C=C1C[NH3+])C[NH3+])","CC1=CC(CN)=C(O)C(CN)=C1","InChI=1S/C9H14N2O/c1-6-2-7(4-10)9(12)8(3-6)5-11/h2-3,12H,4-5,10-11H2,1H3","WFUYUPBXEWUWNA-UHFFFAOYSA-N","?","23.9","potentiometric","a1/apparent","O-H","acidic",7.0
"15000","OC=2(C(C1(=[NH+]CCN1))=CC3(=CC=CC=C3(C=2)))","OC1=CC2C=CC=CC=2C=C1C1NCCN=1","InChI=1S/C13H12N2O/c16-12-8-10-4-2-1-3-9(10)7-11(12)13-14-5-6-15-13/h1-4,7-8,16H,5-6H2,(H,14,15)","FLXNNWWFGVHTDN-UHFFFAOYSA-N","?","20","mean from 2","a1/apparent","?","acidic",7.01
"17864","SC1(=CN=CC=C1)","SC1=CN=CC=C1","InChI=1S/C5H5NS/c7-5-2-1-3-6-4-5/h1-4,7H","FFWJHVGUAKWTKW-UHFFFAOYSA-N","?","20","potentiometric","a2/apparent","neutr.","acidic",7.01
"14720","O=C1(N(C(NOC(=O)C)=CC(N1C)=O)C)","CN1C(=O)CC(=NOC(=C)O)N(C)C1=O","InChI=1S/C8H11N3O4/c1-5(12)15-9-6-4-7(13)11(3)8(14)10(6)2/h12H,1,4H2,2-3H3","VMYJSJMPJNCHKT-UHFFFAOYSA-N","?","20",,"a/apparent","?","acidic",7.01
"16429","S1(C(=NC2(=C1C=CC=C2))C=3(C(=O)OC=4(C=C(O)C=CC=4(C=3))))","OC1=CC2OC(=O)C(=CC=2C=C1)C1=NC2C=CC=CC=2S1","InChI=1S/C16H9NO3S/c18-10-6-5-9-7-11(16(19)20-13(9)8-10)15-17-12-3-1-2-4-14(12)21-15/h1-8,18H","CYONGLVNBSZCQH-UHFFFAOYSA-N","?","22",,"a1/thermodynamic","OH","acidic",7.02
"16410","S(=O)(=O)(NC2(=NN(C1(=CC([N+](=O)[O-])=CC=C1))C=C2))C3(=CC=C(N)C=C3)","NC1C=CC(=CC=1)S(=O)(=O)NC1C=CN(N=1)C1=CC(=CC=C1)[N+]([O-])=O","InChI=1S/C15H13N5O4S/c16-11-4-6-14(7-5-11)25(23,24)18-15-8-9-19(17-15)12-2-1-3-13(10-12)20(21)22/h1-10H,16H2,(H,17,18)","CJYWVELMOYKGFC-UHFFFAOYSA-N","?","25","spectrophotometric","a1/apparent","?","acidic",7.03
"12454","OC=2(C1(=[NH+]C=CC(=C1C=CC=2)N(C)C))","CN(C)C1=CC=NC2=C(O)C=CC=C12","InChI=1S/C11H12N2O/c1-13(2)9-6-7-12-11-8(9)4-3-5-10(11)14/h3-7,14H,1-2H3","FFLUAWJHEQAZCD-UHFFFAOYSA-N","?","25","potentiometric","a1/apparent","O-H","acidic",7.05
"14996","OC=3(C2(=[NH+]C=1(C(=CC=CC=1)C(=C2C=CC=3)N)))","NC1C2=CC=CC(O)=C2N=C2C=CC=CC2=1","InChI=1S/C13H10N2O/c14-12-8-4-1-2-6-10(8)15-13-9(12)5-3-7-11(13)16/h1-7,16H,(H2,14,15)","GDZRJFWQCPISHE-UHFFFAOYSA-N","?","20","spectrophotometric","a/apparent","?","acidic",7.05
"10022","ClC1(C(=O)C(=O)CC1)","OC1C(=O)CCC=1Cl","InChI=1S/C5H5ClO2/c6-3-1-2-4(7)5(3)8/h8H,1-2H2","PZHBXQSXKZBHOX-UHFFFAOYSA-N","?",,,"a/apparent","?","acidic",7.05
"10828","ClC1(=CC(=CC=C1)C([N+](=O)[O-])C)","CC(C1C=C(Cl)C=CC=1)[N+]([O-])=O","InChI=1S/C8H8ClNO2/c1-6(10(11)12)7-3-2-4-8(9)5-7/h2-6H,1H3","PSJOJUWGNYLKMW-UHFFFAOYSA-N","?","25","spectrophotometric","a1/apparent","?","acidic",7.05
"10829","FC1(=CC(=CC=C1)C([N+](=O)[O-])C)","CC(C1C=C(F)C=CC=1)[N+]([O-])=O","InChI=1S/C8H8FNO2/c1-6(10(11)12)7-3-2-4-8(9)5-7/h2-6H,1H3","WXAUYRLTWHDJQN-UHFFFAOYSA-N","?","25","spectrophotometric","a1/apparent","?","acidic",7.05
"13569","O=C(C(=NO)C[NH+]1(CCCCC1))C","C=C(O)C(CN1CCCCC1)N=O","InChI=1S/C9H16N2O2/c1-8(12)9(10-13)7-11-5-3-2-4-6-11/h9,12H,1-7H2","OSRZKSKTSGFSNA-UHFFFAOYSA-N","?",,"potentiometric","a1/apparent","OH","acidic",7.05
"16483","ClC1(=C(O)C(=C(OC)C=C1)C(=O)NCC2([NH+](CCC2)CC))","CCN1CCCC1CNC(=O)C1=C(O)C(Cl)=CC=C1OC","InChI=1S/C15H21ClN2O3/c1-3-18-8-4-5-10(18)9-17-15(20)13-12(21-2)7-6-11(16)14(13)19/h6-7,10,19H,3-5,8-9H2,1-2H3,(H,17,20)","GNUARZZEUPYJBU-UHFFFAOYSA-N","?","25","potentiometric","a1/apparent","OH","acidic",7.07
"12519","OC2(=CC=1(C(=[N+](C=CC=1)CCC)C=C2))","CCC[N+]1C=CC=C2C=C(O)C=CC=12","InChI=1S/C12H13NO/c1-2-7-13-8-3-4-10-9-11(14)5-6-12(10)13/h3-6,8-9H,2,7H2,1H3/p+1","SHULOWHQRDQXRM-UHFFFAOYSA-O","?","25","spectrophotometric","a1/apparent","?","acidic",7.08
"11211","OC2(=CC=1(C(=CC=[N+](C=1)C)C=C2))","C[N+]1C=C2C=C(O)C=CC2=CC=1","InChI=1S/C10H9NO/c1-11-5-4-8-2-3-10(12)6-9(8)7-11/h2-7H,1H3/p+1","ZLCXGHHFCVSSRK-UHFFFAOYSA-O","?","20","potentiometric","a/apparent","?","acidic",7.09
"17240","O=COO","OOC=O","InChI=1S/CH2O3/c2-1-4-3/h1,3H","SCKXCAADGDQQCS-UHFFFAOYSA-N","?","19.5","potentiometric","a/apparent","?","acidic",7.1
"16195","S(=O)(=O)(NC=1(SC=C(N=1)C))C2(=CC=C(N)C=C2)","CC1=CSC(NS(=O)(=O)C2C=CC(N)=CC=2)=N1","InChI=1S/C10H11N3O2S2/c1-7-6-16-10(12-7)13-17(14,15)9-4-2-8(11)3-5-9/h2-6H,11H2,1H3,(H,12,13)","KJVQYDYPDFFJMP-UHFFFAOYSA-N","?","20","mean from 2","a/apparent","?","acidic",7.12
"15785","[Br]C2(=NC=C(NS(=O)(=O)C1(=CC=C(N)C=C1))C=C2)","NC1C=CC(=CC=1)S(=O)(=O)NC1=CN=C(Br)C=C1","InChI=1S/C11H10BrN3O2S/c12-11-6-3-9(7-14-11)15-18(16,17)10-4-1-8(13)2-5-10/h1-7,15H,13H2","MPODODXILOYOLX-UHFFFAOYSA-N","?",,"potentiometric","a/apparent","?","acidic",7.12
"16450","O=C(N)C2(=CC=[N+](COC[N+]1(=C(C=CC=C1)C=NO))C=C2)","NC(=O)C1=CC=[N+](COC[N+]2C=CC=CC=2CN=O)C=C1","InChI=1S/C14H15N4O3/c15-14(19)12-4-7-17(8-5-12)10-21-11-18-6-2-1-3-13(18)9-16-20/h1-8H,9-11H2,(H-,15,19)/q+1/p+1","NKSPYIAUOHPESI-UHFFFAOYSA-O","?","25","potentiometric","a1/apparent","NOH","acidic",7.13
"11799","O=[N+]([O-])C1(=CC=C(O)C=C1)","[O-][N+](=O)C1C=CC(O)=CC=1","InChI=1S/C6H5NO3/c8-6-3-1-5(2-4-6)7(9)10/h1-4,8H","BTJIUGUIPKRLHP-UHFFFAOYSA-N","?","23","mean from 16","a1/apparent","CO-H","acidic",7.13
"11204","OC2(=CC=1(C(=[N+](C=CC=1)C)C=C2))","C[N+]1C=CC=C2C=C(O)C=CC=12","InChI=1S/C10H9NO/c1-11-6-2-3-8-7-9(12)4-5-10(8)11/h2-7H,1H3/p+1","QZNZRLKIBMZEIK-UHFFFAOYSA-O","?","20","potentiometric","a/apparent","?","acidic",7.15
"11798","O=[N+]([O-])C1(=C(O)C=CC=C1)","[O-][N+](=O)C1C=CC=CC=1O","InChI=1S/C6H5NO3/c8-6-4-2-1-3-5(6)7(9)10/h1-4,8H","IQUPABOKLQSFBK-UHFFFAOYSA-N","?","24","mean from 6","b1/apparent","?","acidic",7.15
"10785","O=[N+]([O-])C1(=CC=C(B(O)O)C=C1)","[O-][N+](=O)C1C=CC(=CC=1)B(O)O","InChI=1S/C6H6BNO4/c9-7(10)5-1-3-6(4-2-5)8(11)12/h1-4,9-10H","NSFJAFZHYOAMHL-UHFFFAOYSA-N","?","25","potentiometric","a/apparent","?","acidic",7.15
"15181","S(=O)(=O)([O-])C=2(C(=NO)C=1(NN=CC=1C(C=2)=O))","OS(=O)(=O)C1=CC(=O)C2C=NNC=2C1N=O","InChI=1S/C7H5N3O5S/c11-4-1-5(16(13,14)15)7(10-12)6-3(4)2-8-9-6/h1-2,7H,(H,8,9)(H,13,14,15)","RNJHBVBNXRHNNR-UHFFFAOYSA-N","?","25","potentiometric","a/apparent","?","acidic",7.15
"16212","O=C1(N(NC(=C1CCC)C)C2(CC[NH+](C)CC2))","CN1CCC(CC1)N1N=C(C)C(CCC)C1=O","InChI=1S/C13H23N3O/c1-4-5-12-10(2)14-16(13(12)17)11-6-8-15(3)9-7-11/h11-12H,4-9H2,1-3H3","IVRRNANXICQAJZ-UHFFFAOYSA-N","?",,"potentiometric","a1/apparent","?","acidic",7.18
"10181","[Se-]C1(=[NH+]C(O)=CC=N1)","OC1=CC=NC([Se-])=N1","InChI=1S/C4H4N2OSe/c7-3-1-2-5-4(8)6-3/h1-2H,(H2,5,6,7,8)/p-1","NGXVPIDNNNKQIL-UHFFFAOYSA-M","?",,"potentiometric","a/apparent","?","acidic",7.18
"12094","O2([N+]1(=C(C=CC=C1)N=C2N))","NC1=NC2C=CC=C[N+]=2O1","InChI=1S/C6H5N3O/c7-6-8-5-3-1-2-4-9(5)10-6/h1-4,7H/p+1","AJNTXQCUGNTRLZ-UHFFFAOYSA-O","?","23","mean from 2","a1/apparent","?","acidic",7.18
"15921","S1(C(=NC2(=C1C=CC=C2))N=NC=4(C=3(C(=NC=CC=3)C(O)=CC=4)))","OC1=CC=C(N=NC2=NC3C=CC=CC=3S2)C2=CC=CN=C21","InChI=1S/C16H10N4OS/c21-13-8-7-11(10-4-3-9-17-15(10)13)19-20-16-18-12-5-1-2-6-14(12)22-16/h1-9,21H","UOFDZBFOEPUHAT-UHFFFAOYSA-N","?","22",,"a1/apparent","OH","acidic",7.2
"15874","OC=1(N(N=C(C=1CCCC)C2(=CC=CC=C2))C3(=CC=CC=C3))","CCCCC1=C(O)N(N=C1C1C=CC=CC=1)C1C=CC=CC=1","InChI=1S/C19H20N2O/c1-2-3-14-17-18(15-10-6-4-7-11-15)20-21(19(17)22)16-12-8-5-9-13-16/h4-13,22H,2-3,14H2,1H3","VMYKROKEBNOACN-UHFFFAOYSA-N","?",,"potentiometric","a/apparent","?","acidic",7.2
"16808","OC=1(N(N=C(C=1CCCCCCCCC)C2(=CC=CC=C2))C3(=CC=CC=C3))","CCCCCCCCCC1=C(O)N(N=C1C1C=CC=CC=1)C1C=CC=CC=1","InChI=1S/C24H30N2O/c1-2-3-4-5-6-7-14-19-22-23(20-15-10-8-11-16-20)25-26(24(22)27)21-17-12-9-13-18-21/h8-13,15-18,27H,2-7,14,19H2,1H3","ZOCQUQXXALFSAM-UHFFFAOYSA-N","?",,"potentiometric","a/apparent","?","acidic",7.2
"10515","O=C1(C(O)=CC(C(C)C)=CC=C1)","CC(C)C1C=C(O)C(=O)C=CC=1","InChI=1S/C10H12O2/c1-7(2)8-4-3-5-9(11)10(12)6-8/h3-7H,1-2H3,(H,11,12)","FUWUEFKEXZQKKA-UHFFFAOYSA-N","?","29","mean from 3","a/thermodynamic","?","acidic",7.22
"10883","O=[N+]([O-])C1(=CC(=C(O)C(=C1)C)C)","CC1=CC(=CC(C)=C1O)[N+]([O-])=O","InChI=1S/C8H9NO3/c1-5-3-7(9(11)12)4-6(2)8(5)10/h3-4,10H,1-2H3","FNORUNUDZNWQFF-UHFFFAOYSA-N","?","25","potentiometric","apparent","?","acidic",7.22
"15248","O=C(NCC1([NH+](CCC1)CC))C2(=C(OC)C(=CC(=C2O)CC)CC)","COC1C(=C(O)C(CC)=CC=1CC)C(=O)NCC1CCCN1CC","InChI=1S/C19H30N2O3/c1-5-13-11-14(6-2)18(24-4)16(17(13)22)19(23)20-12-15-9-8-10-21(15)7-3/h11,15,22H,5-10,12H2,1-4H3,(H,20,23)","CLYMXDQVLPUPJD-UHFFFAOYSA-N","?","25","potentiometric","a1/apparent","OH","acidic",7.24
"11948","O=C2(C1(=C(C=C(O)C=C1)C2))","OC1=CC2C=C(O)C=2C=C1","InChI=1S/C8H6O2/c9-6-1-2-7-5(3-6)4-8(7)10/h1-4,9-10H","FAZGLELRQCASFW-UHFFFAOYSA-N","?","25","potentiometric","a1/thermodynamic","OH","acidic",7.24
"14239","O=C1(C(O)=CC(OC)=CC=C1)","COC1C=C(O)C(=O)C=CC=1","InChI=1S/C8H8O3/c1-11-6-3-2-4-7(9)8(10)5-6/h2-5H,1H3,(H,9,10)","LCPIUODQEAEATK-UHFFFAOYSA-N","?","25","potentiometric","a/apparent","?","acidic",7.24
"13478","OC(N1(C=[NH+]C=C1))C2(=CC=NC=C2)","OC(C1C=CN=CC=1)N1C=NC=C1","InChI=1S/C9H9N3O/c13-9(12-6-5-11-7-12)8-1-3-10-4-2-8/h1-7,9,13H","LQNFCUXUNRJXHO-UHFFFAOYSA-N","?","30",,"a1/apparent","OH","acidic",7.24
"12233","FC1(=C(O)C(=CC=C1)C[NH+](CC)CC)","CCN(CC1C=CC=C(F)C=1O)CC","InChI=1S/C11H16FNO/c1-3-13(4-2)8-9-6-5-7-10(12)11(9)14/h5-7,14H,3-4,8H2,1-2H3","QLBAYUYVNXIDMX-UHFFFAOYSA-N","?","25","potentiometric","a1/apparent","?","acidic",7.26
"10731","S(=O)(=O)([O-])C=1(NC(=O)NC(C=1)=O)","OS(=O)(=O)C1CC(=O)NC(=O)N=1","InChI=1S/C4H4N2O5S/c7-2-1-3(12(9,10)11)6-4(8)5-2/h1H2,(H,5,7,8)(H,9,10,11)","PEPWAFZFSMVWNB-UHFFFAOYSA-N","?","25","potentiometric","a/thermodynamic","?","acidic",7.26
"11373","O=C1(C(O)=CC(C)=CC=C1)","CC1=CC=CC(=O)C(O)=C1","InChI=1S/C8H8O2/c1-6-3-2-4-7(9)8(10)5-6/h2-5H,1H3,(H,9,10)","OTXSBWFUHZIFLR-UHFFFAOYSA-N","?",,"potentiometric","a/thermodynamic","?","acidic",7.26
"13192","O=C(N)CNCCCNCC(=O)N","NC(O)C=NCCCN=CC(N)O","InChI=1S/C7H16N4O2/c8-6(12)4-10-2-1-3-11-5-7(9)13/h4-7,12-13H,1-3,8-9H2","LQJFSOKYOIFOQX-UHFFFAOYSA-N","?","25","mean from 2","b1/apparent","=NH(+)H","acidic",7.27
"10713","O=C(N)C(N)CC1(=CC=CC=C1)","NC(O)C(=N)CC1C=CC=CC=1","InChI=1S/C9H12N2O/c10-8(9(11)12)6-7-4-2-1-3-5-7/h1-5,9-10,12H,6,11H2","WDYZJSRUFWIQFZ-UHFFFAOYSA-N","?, ?","25","mean from 4","a/thermodynamic","?, NH2","acidic",7.295
"16197","S(=O)(=O)(NC=1(SC=CN=1))C2(=C(C=C(N)C=C2)C)","CC1C=C(N)C=CC=1S(=O)(=O)NC1=NC=CS1","InChI=1S/C10H11N3O2S2/c1-7-6-8(11)2-3-9(7)17(14,15)13-10-12-4-5-16-10/h2-6H,11H2,1H3,(H,12,13)","FLOJODNDBLOGID-UHFFFAOYSA-N","?",,"potentiometric","a/apparent","?","acidic",7.3
"17662","O=C(N)C(N)CO","NC(O)C(=N)CO","InChI=1S/C3H8N2O2/c4-2(1-6)3(5)7/h3-4,6-7H,1,5H2","LZUKXRAWUPGPCY-UHFFFAOYSA-N","?",,"potentiometric","a/apparent","?","acidic",7.3
"12130","S(=O)(=O)(N)C=1(SC(=NC(=O)C)N(N=1)C)","CN1N=C(SC1=NC(=C)O)S(N)(=O)=O","InChI=1S/C5H8N4O3S2/c1-3(10)7-4-9(2)8-5(13-4)14(6,11)12/h10H,1H2,2H3,(H2,6,11,12)","DFUPTVAFCFCFLS-UHFFFAOYSA-N","?",,"spectrophotometric","a/apparent","?","acidic",7.3
"10786","O=[N+]([O-])C1(=CC(=CC=C1)B(O)O)","[O-][N+](=O)C1=CC(=CC=C1)B(O)O","InChI=1S/C6H6BNO4/c9-7(10)5-2-1-3-6(4-5)8(11)12/h1-4,9-10H","ZNRGSYUVFVNSAW-UHFFFAOYSA-N","?","25","potentiometric","a/apparent","?","acidic",7.3
"11465","O=C(OO)C1(=CC=CC=C1)","OOC(=O)C1C=CC=CC=1","InChI=1S/C7H6O3/c8-7(10-9)6-4-2-1-3-5-6/h1-5,9H","XCRBXWCUXJNEFX-UHFFFAOYSA-N","?","25","potentiometric","a/apparent","?","acidic",7.3
"13422","[Br]C2(=C(O)C1(=NC=CC=C1C(=C2)[Br]))","OC1C2=NC=CC=C2C(Br)=CC=1Br","InChI=1S/C9H5Br2NO/c10-6-4-7(11)9(13)8-5(6)2-1-3-12-8/h1-4,13H","ZDASUJMDVPTNTF-UHFFFAOYSA-N","?","25","spectrophotometric","a2/apparent","?","acidic",7.3
"14283","O=CC1(=C(C=CC=C1)B(O)O)","OB(O)C1C=CC=CC=1C=O","InChI=1S/C7H7BO3/c9-5-6-3-1-2-4-7(6)8(10)11/h1-5,10-11H","DGUWACLYDSWXRZ-UHFFFAOYSA-N","?","25","potentiometric","a/apparent","?","acidic",7.31
"16583","S(=O)(=O)(N)C=2(SC(N(C1(=CC=CC=C1))C(=O)C)=NN=2)","C=C(O)N(C1=NN=C(S1)S(N)(=O)=O)C1C=CC=CC=1","InChI=1S/C10H10N4O3S2/c1-7(15)14(8-5-3-2-4-6-8)9-12-13-10(18-9)19(11,16)17/h2-6,15H,1H2,(H2,11,16,17)","MJIOHLOXXNINBP-UHFFFAOYSA-N","?",,"spectrophotometric","a/apparent","?","acidic",7.32
"12141","O=C(N(C)C)C=C(O)C1(=CC=NC=C1)","CN(C)C(=O)C=C(O)C1C=CN=CC=1","InChI=1S/C10H12N2O2/c1-12(2)10(14)7-9(13)8-3-5-11-6-4-8/h3-7,13H,1-2H3","XYTODIBKWYVIBL-UHFFFAOYSA-N","?","25","spectrophotometric","a1/apparent","?","acidic",7.32
"15382","O=C2(N(C=1(NN=C(C(=O)OCC)C(C=1C(N2C)=O)=O))C)","CCOC(=O)C1N=NC2=C(C=1O)C(=O)N(C)C(=O)N2C","InChI=1S/C11H12N4O5/c1-4-20-10(18)6-7(16)5-8(13-12-6)14(2)11(19)15(3)9(5)17/h4H2,1-3H3,(H,13,16)","HWSVREYMAXESSD-UHFFFAOYSA-N","?","20",,"a/apparent","?","acidic",7.32
"13856","O=C(N)C1(=CN2(CCC1CC2))","NC(=O)C1=CN2CCC1CC2","InChI=1S/C8H12N2O/c9-8(11)7-5-10-3-1-6(7)2-4-10/h5-6H,1-4H2,(H2,9,11)","QLVHRZPCTKRFSO-UHFFFAOYSA-N","?","25",,"a/apparent","?","acidic",7.32
"11374","O=C1(C(O)=CC=C(C=C1)C)","CC1C=CC(=O)C(O)=CC=1","InChI=1S/C8H8O2/c1-6-2-4-7(9)8(10)5-3-6/h2-5H,1H3,(H,9,10)","FQOCWKSOAXYSQY-UHFFFAOYSA-N","?","25","potentiometric","a/thermodynamic","?","acidic",7.32
"16485","N#CC(=NNC2(=CC=C(N=NC1(=CC=CC=C1))C=C2))C#N","N#CC(C#N)N=NC1C=CC(=CC=1)N=NC1C=CC=CC=1","InChI=1S/C15H10N6/c16-10-15(11-17)21-20-14-8-6-13(7-9-14)19-18-12-4-2-1-3-5-12/h1-9,15H","NCDCTVOPSIPZCZ-UHFFFAOYSA-N","?","25","spectrophotometric","a1/apparent","N-H","acidic",7.33
"15250","O=C(C1(=CC(=C(O)C=C1)C[NH3+]))C2(=CC=C(OCC(=O)OCC)C=C2)","CCOC(O)=COC1C=CC(=CC=1)C(=O)C1C=C(CN)C(O)=CC=1","InChI=1S/C18H19NO5/c1-2-23-17(21)11-24-15-6-3-12(4-7-15)18(22)13-5-8-16(20)14(9-13)10-19/h3-9,11,20-21H,2,10,19H2,1H3","HACFWILSYVALIP-UHFFFAOYSA-N","?","25","spectrophotometric","a1/apparent","OH","acidic",7.34
"16080","O(C1(=NC(=NC(=C1)C)N2(N=C(C)C=C2O)))CC","CCOC1C=C(C)N=C(N=1)N1N=C(C)C=C1O","InChI=1S/C11H14N4O2/c1-4-17-9-5-7(2)12-11(13-9)15-10(16)6-8(3)14-15/h5-6,16H,4H2,1-3H3","FFFSVBPFIGJJSK-UHFFFAOYSA-N","?","20","potentiometric","a1/apparent","?","acidic",7.35
"13283","FC(F)(F)C1(=NC=NC2(=C1NC=N2))","FC(F)(F)C1=NC=NC2N=CNC=21","InChI=1S/C6H3F3N4/c7-6(8,9)4-3-5(12-1-10-3)13-2-11-4/h1-2H,(H,10,11,12,13)","RPGVDXOVVBWOIH-UHFFFAOYSA-N","?",,"spectrophotometric","a/apparent","?","acidic",7.35
"14274","O=CC1(=CC(OC)=C(O)C=C1)","COC1C=C(C=O)C=CC=1O","InChI=1S/C8H8O3/c1-11-8-4-6(5-9)2-3-7(8)10/h2-5,10H,1H3","MWOOGOJBHIARFG-UHFFFAOYSA-N","?","25","spectrophotometric","a/thermodynamic","?","acidic",7.38
"12564","S(=O)(C1(=NC=NN1))CC2(=CC=CC=C2)","O=S(CC1C=CC=CC=1)C1NN=CN=1","InChI=1S/C9H9N3OS/c13-14(9-10-7-11-12-9)6-8-4-2-1-3-5-8/h1-5,7H,6H2,(H,10,11,12)","GWKVIFGXSPTEKW-UHFFFAOYSA-N","?","23","spectrophotometric","a1/apparent","NH","acidic",7.38
"15505","O=C1(C3(=C(OC(=C1)C2(=CC=CC=C2))C=C(O)C=C3))","OC1=CC2OC(=CC(=O)C=2C=C1)C1C=CC=CC=1","InChI=1S/C15H10O3/c16-11-6-7-12-13(17)9-14(18-15(12)8-11)10-4-2-1-3-5-10/h1-9,16H","MQGPSCMMNJKMHQ-UHFFFAOYSA-N","?","23","spectrophotometric","a1/apparent","H+","acidic",7.39
"10777","O=[N+]([O-])C1(=C(O)C=CC(=C1)OC)","COC1=CC(=C(O)C=C1)[N+]([O-])=O","InChI=1S/C7H7NO4/c1-12-5-2-3-7(9)6(4-5)8(10)11/h2-4,9H,1H3","YBUGOACXDPDUIR-UHFFFAOYSA-N","?","25","mean from 3","a1/apparent","?","acidic",7.39
"14482","O=[N+]([O-])C(C1(=CC=CC=C1))C","CC(C1C=CC=CC=1)[N+]([O-])=O","InChI=1S/C8H9NO2/c1-7(9(10)11)8-5-3-2-4-6-8/h2-7H,1H3","GJOVHPKYFFGKCY-UHFFFAOYSA-N","?","25","spectrophotometric","a1/apparent","?","acidic",7.39
"16006","[N+]2(=C1(NC=3(C=CC=CC=3(C1=CC=C2))))(C)","C[N+]1C=CC=C2C=1NC1C=CC=CC=12","InChI=1S/C12H10N2/c1-14-8-4-6-10-9-5-2-3-7-11(9)13-12(10)14/h2-8H,1H3/p+1","OOMREJOXOCWRAS-UHFFFAOYSA-O","?","20","potentiometric","a/apparent","?","acidic",7.4
"17143","O=CC2(C1(=C(C=CC=C1)C3(=C2C=CC=C3)))","OC=C1C2C=CC=CC=2C2C=CC=CC=21","InChI=1S/C14H10O/c15-9-14-12-7-3-1-5-10(12)11-6-2-4-8-13(11)14/h1-9,15H","UDSGTYRXJSKAHQ-UHFFFAOYSA-N","?","25",,"a1/apparent","?","acidic",7.4
"16292","S=C(OC)C2(C1(=C(C=CC=C1)C3(=C2C=CC=C3)))","COC(=S)C1C2C=CC=CC=2C2C=CC=CC=21","InChI=1S/C15H12OS/c1-16-15(17)14-12-8-4-2-6-10(12)11-7-3-5-9-13(11)14/h2-9,14H,1H3","SGWRCUNYYCZZSD-UHFFFAOYSA-N","?","25","spectrophotometric","a1/thermodynamic","?","acidic",7.4
"15226","OC=1(N(N=C(C=1CCCCCC)C2(=CC=CC=C2))C3(=CC=CC=C3))","CCCCCCC1=C(O)N(N=C1C1C=CC=CC=1)C1C=CC=CC=1","InChI=1S/C21H24N2O/c1-2-3-4-11-16-19-20(17-12-7-5-8-13-17)22-23(21(19)24)18-14-9-6-10-15-18/h5-10,12-15,24H,2-4,11,16H2,1H3","MGLHAVFGWJTJPA-UHFFFAOYSA-N","?",,"potentiometric","a/apparent","?","acidic",7.4
"17772","O=CC1(=CC=CC1)","O=CC1CC=CC=1","InChI=1S/C6H6O/c7-5-6-3-1-2-4-6/h1-3,5H,4H2","HPMRWTBJVLFWEO-UHFFFAOYSA-N","?","30","spectrophotometric","a1/apparent","?","acidic",7.4
"11416","[Br]C1(=CC(=C(O)C=C1)C=O)","OC1C=CC(Br)=CC=1C=O","InChI=1S/C7H5BrO2/c8-6-1-2-7(10)5(3-6)4-9/h1-4,10H","MKKSTJKBKNCMRV-UHFFFAOYSA-N","?","25","potentiometric","a/apparent","?","acidic",7.4
"11407","ClC1(=CC(=C(O)C=C1)C=O)","OC1C=CC(Cl)=CC=1C=O","InChI=1S/C7H5ClO2/c8-6-1-2-7(10)5(3-6)4-9/h1-4,10H","FUGKCSRLAQKUHG-UHFFFAOYSA-N","?","25","mean from 2","a1/apparent","?","acidic",7.4
"13869","OC=2(C=1(C(=NN=CC=1)C=CC=2))","OC1=CC=CC2=NN=CC=C21","InChI=1S/C8H6N2O/c11-8-3-1-2-7-6(8)4-5-9-10-7/h1-5,11H","ZZVUPNFZGYTAAN-UHFFFAOYSA-N","?","20","potentiometric","a2/apparent","?","acidic",7.4
"16591","S(=O)(=O)(NC1(=CC=CC=C1))C2(=CC=C([N+](=O)[O-])C=C2)","[O-][N+](=O)C1C=CC(=CC=1)S(=O)(=O)NC1C=CC=CC=1","InChI=1S/C12H10N2O4S/c15-14(16)11-6-8-12(9-7-11)19(17,18)13-10-4-2-1-3-5-10/h1-9,13H","BJKNXDSKYOQVTJ-UHFFFAOYSA-N","?","20","spectrophotometric","a/apparent","?","acidic",7.41
"16578","S(=O)(=O)(NC1(=NC(=CC(=N1)C)C))C2(=CC=C(N)C=C2)","CC1C=C(C)N=C(NS(=O)(=O)C2C=CC(N)=CC=2)N=1","InChI=1S/C12H14N4O2S/c1-8-7-9(2)15-12(14-8)16-19(17,18)11-5-3-10(13)4-6-11/h3-7H,13H2,1-2H3,(H,14,15,16)","ASWVTGNCAZCNNR-UHFFFAOYSA-N","?","24","mean from 2","a/apparent","?","acidic",7.44
"17181","OC3(=CC2(=NC=1(C(=CC=CC=1)N=C2C=C3)))","OC1=CC2=NC3=CC=CC=C3N=C2C=C1","InChI=1S/C12H8N2O/c15-8-5-6-11-12(7-8)14-10-4-2-1-3-9(10)13-11/h1-7,15H","RETSEGNZNUBJRB-UHFFFAOYSA-N","?","30","mean from 2","a1/apparent","?","acidic",7.45
"11480","O=CC1(=CC(O)=C(O)C=C1)","OC1C=C(C=O)C=CC=1O","InChI=1S/C7H6O3/c8-4-5-1-2-6(9)7(10)3-5/h1-4,9-10H","IBGBGRVKPALMCQ-UHFFFAOYSA-N","?","25","mean from 2","apparent","?","acidic",7.45
"12210","S=C(OCC)NC(=O)C1(=CC=CC=C1)","CCOC(=S)NC(=O)C1C=CC=CC=1","InChI=1S/C10H11NO2S/c1-2-13-10(14)11-9(12)8-6-4-3-5-7-8/h3-7H,2H2,1H3,(H,11,12,14)","GCMIBRWGMZXOOW-UHFFFAOYSA-N","?","20","potentiometric","a1/apparent","?","acidic",7.46
"17780","SC1(=NN=CN1N)","NN1C=NN=C1S","InChI=1S/C2H4N4S/c3-6-1-4-5-2(6)7/h1H,3H2,(H,5,7)","DLLBXBCKFUPBJE-UHFFFAOYSA-N","?","30","potentiometric","a1/apparent","?","acidic",7.47
"13545","S(=O)(=O)(N)C=1(SC(NC(=O)C)=NN=1)","C/C(/O)=N\C1=NN=C(S1)S(N)(=O)=O","InChI=1S/C4H6N4O3S2/c1-2(9)6-3-7-8-4(12-3)13(5,10)11/h1H3,(H2,5,10,11)(H,6,7,9)","BZKPWHYZMXOIDC-UHFFFAOYSA-N","?","25","mean from 2","a1/apparent","?","acidic",7.48
"13762","S=C1(N(C=2(N=CN=CC=2(N1)))C)","CN1C(=S)NC2C=NC=NC1=2","InChI=1S/C6H6N4S/c1-10-5-4(9-6(10)11)2-7-3-8-5/h2-3H,1H3,(H,9,11)","LOCQWLOWPUZSDX-UHFFFAOYSA-N","?",,"potentiometric","a/apparent","?","acidic",7.48
"10815","O=[N+]([O-])C(C1(=CC(=CC=C1)C))C","CC1C=C(C=CC=1)C(C)[N+]([O-])=O","InChI=1S/C9H11NO2/c1-7-4-3-5-9(6-7)8(2)10(11)12/h3-6,8H,1-2H3","IWGZCRKBOSEMLO-UHFFFAOYSA-N","?","25","spectrophotometric","a1/apparent","?","acidic",7.49
"13689","S=C(NC1(=CC=CC=C1))CC(=O)C","C=C(O)CC(=S)NC1C=CC=CC=1","InChI=1S/C10H11NOS/c1-8(12)7-10(13)11-9-5-3-2-4-6-9/h2-6,12H,1,7H2,(H,11,13)","XJSZBALVTDZBMS-UHFFFAOYSA-N","?","25","mean from 2","a1/apparent","?","acidic",7.5
"15798","S(=O)(=O)(NC1(=NC=C(O)C=C1))C2(=CC=C(N)C=C2)","NC1C=CC(=CC=1)S(=O)(=O)NC1C=CC(O)=CN=1","InChI=1S/C11H11N3O3S/c12-8-1-4-10(5-2-8)18(16,17)14-11-6-3-9(15)7-13-11/h1-7,15H,12H2,(H,13,14)","XMCHHHBDBWYWSU-UHFFFAOYSA-N","?",,"spectrophotometric","a/apparent","?","acidic",7.5