"Molecule name","OriginalSmiles","Canonical_QSARr","InChI_Code_QSARr","InChI Key_QSARr","Salt_Solvent (Concatenate)","temp","method","type","group","basicOrAcidic","pKa"
"16745","S1(C(=NN=C1C2(=CC=CC=C2))NCC3(=CC=CC=C3))","C(NC1=NN=C(S1)C1C=CC=CC=1)C1C=CC=CC=1","InChI=1S/C15H13N3S/c1-3-7-12(8-4-1)11-16-15-18-17-14(19-15)13-9-5-2-6-10-13/h1-10H,11H2,(H,16,18)","RSVVSFGLTRDYOF-UHFFFAOYSA-N","?",,"spectrophotometric","b/apparent","?","acidic",11.5
"16514","O=C([O-])C(=CC1(=CC(=C(O)C(=C1)C(C)(C)C)C(C)(C)C))C","CC(=CC1=CC(=C(O)C(=C1)C(C)(C)C)C(C)(C)C)C(O)=O","InChI=1S/C18H26O3/c1-11(16(20)21)8-12-9-13(17(2,3)4)15(19)14(10-12)18(5,6)7/h8-10,19H,1-7H3,(H,20,21)","KDOKMHHKUDUTNJ-UHFFFAOYSA-N","?","25","spectrophotometric","a1/apparent","H","acidic",11.5
"11825","O=C(NN)C1(=CN=CC=C1)","NNC(=O)C1C=CC=NC=1","InChI=1S/C6H7N3O/c7-9-6(10)5-2-1-3-8-4-5/h1-4H,7H2,(H,9,10)","KFUSANSHCADHNJ-UHFFFAOYSA-N","?","23","mean from 3","a1/apparent","?","acidic",11.5
"14326","ON=C1(C(=NO)CCCCC1)","O=NC1CCCCCC1N=O","InChI=1S/C7H12N2O2/c10-8-6-4-2-1-3-5-7(6)9-11/h6-7H,1-5H2","JPOFMNPDKKAADL-UHFFFAOYSA-N","?, ?","24","mean from 2","a1/apparent","?, ?","acidic",11.5
"11095","OCC1(=NC=2(C=C(C)C=CC=2(N1)))","CC1=CC2N=C(CO)NC=2C=C1","InChI=1S/C9H10N2O/c1-6-2-3-7-8(4-6)11-9(5-12)10-7/h2-4,12H,5H2,1H3,(H,10,11)","GUVUEQHXSSOYNR-UHFFFAOYSA-N","?","30","potentiometric","a1/apparent","O-H","acidic",11.5
"16287","O=C(OC)C2(C1(=C(C=CC=C1)C3(=C2C=CC=C3)))","COC(O)=C1C2C=CC=CC=2C2C=CC=CC=21","InChI=1S/C15H12O2/c1-17-15(16)14-12-8-4-2-6-10(12)11-7-3-5-9-13(11)14/h2-9,16H,1H3","GNEAXQJCVVJSTD-UHFFFAOYSA-N","?","25","spectrophotometric","a1/thermodynamic","?","acidic",11.52
"11974","O=C2(NC=1(N=CNC=1CN2))","O=C1NCC2NC=NC=2N1","InChI=1S/C5H6N4O/c10-5-6-1-3-4(9-5)8-2-7-3/h2H,1H2,(H,7,8)(H2,6,9,10)","QWMARNOUPBIKPI-UHFFFAOYSA-N","?","25",,"a/apparent","?","acidic",11.52
"12690","S=C(OC(C)C)NCC","CCNC(=S)OC(C)C","InChI=1S/C6H13NOS/c1-4-7-6(9)8-5(2)3/h5H,4H2,1-3H3,(H,7,9)","KIACEOHPIRTHMI-UHFFFAOYSA-N","?","20","potentiometric","a1/apparent","?","acidic",11.52
"11540","ON=C1(C(=NO)CCCC1)","O=NC1CCCCC1N=O","InChI=1S/C6H10N2O2/c9-7-5-3-1-2-4-6(5)8-10/h5-6H,1-4H2","XCJOMFFNVGLZCV-UHFFFAOYSA-N","?, ?","22","mean from 3","a1/apparent","?, ?","acidic",11.54
"14137","ON=C(C(=NO)C)CN(C)C","CC(N=O)C(CN(C)C)N=O","InChI=1S/C6H13N3O2/c1-5(7-10)6(8-11)4-9(2)3/h5-6H,4H2,1-3H3","BUBORVWZFXYFRL-UHFFFAOYSA-N","?, ?","25","potentiometric","a1/apparent","?, ?","acidic",11.55
"11664","S=CNC1(=CC(=CC=C1)C)","CC1C=C(C=CC=1)NC=S","InChI=1S/C8H9NS/c1-7-3-2-4-8(5-7)9-6-10/h2-6H,1H3,(H,9,10)","GXIROKNWRUCNEI-UHFFFAOYSA-N","?","20","potentiometric","a1/apparent","?","acidic",11.55
"10493","S=C(OC(C)C)NC","CNC(=S)OC(C)C","InChI=1S/C5H11NOS/c1-4(2)7-5(8)6-3/h4H,1-3H3,(H,6,8)","RTXYXJGGTDHOGH-UHFFFAOYSA-N","?","20","potentiometric","a1/apparent","?","acidic",11.56
"11667","S=C(NC1(=CC=CC=C1))C","CC(=S)NC1C=CC=CC=1","InChI=1S/C8H9NS/c1-7(10)9-8-5-3-2-4-6-8/h2-6H,1H3,(H,9,10)","MWCGLTCRJJFXKR-UHFFFAOYSA-N","?","20","potentiometric","a1/apparent","?","acidic",11.56
"15094","OC=1(N(N=C(C=1C(C)C)C)C2(=CC=CC=C2))","CC1=NN(C(O)=C1C(C)C)C1C=CC=CC=1","InChI=1S/C13H16N2O/c1-9(2)12-10(3)14-15(13(12)16)11-7-5-4-6-8-11/h4-9,16H,1-3H3","PMJQVEIOAGCWFB-UHFFFAOYSA-N","?",,"potentiometric","b/apparent","?","acidic",11.6
"13993","[S-]C1(=NC(=NC2(=C1NC=N2))N)","NC1=NC2N=CNC=2C(S)=N1","InChI=1S/C5H5N5S/c6-5-9-3-2(4(11)10-5)7-1-8-3/h1H,(H4,6,7,8,9,10,11)","WYWHKKSPHMUBEB-UHFFFAOYSA-N","?","23","potentiometric","a2/apparent","?","acidic",11.6
"12688","ON=CCCCCCC","CCCCCCCN=O","InChI=1S/C7H15NO/c1-2-3-4-5-6-7-8-9/h2-7H2,1H3","DMJBDVZMPKTLON-UHFFFAOYSA-N","?","25",,"apparent","?","acidic",11.6
"10154","OC1(=C([O-])N=CN=C1)","OC1C=NC=NC=1O","InChI=1S/C4H4N2O2/c7-3-1-5-2-6-4(3)8/h1-2,7H,(H,5,6,8)","URCOLWAKIPNTEM-UHFFFAOYSA-N","?","20","potentiometric","a3/apparent","?","acidic",11.61
"11665","S=CNC1(=CC=C(C)C=C1)","CC1=CC=C(C=C1)NC=S","InChI=1S/C8H9NS/c1-7-2-4-8(5-3-7)9-6-10/h2-6H,1H3,(H,9,10)","BVECLOAHVRFOBB-UHFFFAOYSA-N","?","20","potentiometric","a1/apparent","?","acidic",11.64
"15109","O=[N+]([O-])C=2(C=1(C(=C[N+](CCO)=CC=1)C=CC=2))","[O-][N+](=O)C1=CC=CC2=C[N+](CCO)=CC=C21","InChI=1S/C11H11N2O3/c14-7-6-12-5-4-10-9(8-12)2-1-3-11(10)13(15)16/h1-5,8,14H,6-7H2/q+1","MSIHUOXSASEWRP-UHFFFAOYSA-N","?","25","spectrophotometric","a2/apparent","O-H","acidic",11.67
"15182","O=[N+]([O-])C2(=CC=C(C(=O)C1(=NNC=C1))C=C2)","[O-][N+](=O)C1C=CC(=CC=1)C(=O)C1C=CNN=1","InChI=1S/C10H7N3O3/c14-10(9-5-6-11-12-9)7-1-3-8(4-2-7)13(15)16/h1-6H,(H,11,12)","FUTIRHNRVMBLKZ-UHFFFAOYSA-N","?",,"spectrophotometric","a/apparent","?","acidic",11.68
"14548","O(C1(=C(C=CN=C1)C(O)O))C","COC1C=NC=CC=1C(O)O","InChI=1S/C7H9NO3/c1-11-6-4-8-3-2-5(6)7(9)10/h2-4,7,9-10H,1H3","YNLUFZTUGJPEDP-UHFFFAOYSA-N","?","20","spectrophotometric","a2/apparent","?","acidic",11.7
"15342","O=C(N)C3(=CC(OC)=C(C1(=NC=2(N(C=NC=2(N1))C)))C=C3)","CN1C=NC2NC(=NC1=2)C1C=CC(=CC=1OC)C(N)=O","InChI=1S/C13H13N5O2/c1-18-6-15-12-13(18)17-11(16-12)8-4-3-7(10(14)19)5-9(8)20-2/h3-6H,1-2H3,(H2,14,19)(H,16,17)","JZLVVGOQVOEHFO-UHFFFAOYSA-N","?","25","spectrophotometric","a1/apparent","?","acidic",11.74
"14536","S=CNC1(=CC=C(OC)C=C1)","COC1C=CC(=CC=1)NC=S","InChI=1S/C8H9NOS/c1-10-8-4-2-7(3-5-8)9-6-11/h2-6H,1H3,(H,9,11)","FDSQYPXUYHFZHK-UHFFFAOYSA-N","?","20","potentiometric","a1/apparent","?","acidic",11.74
"12530","O=[N+]([O-])C2(=CC1(=C(CCC(C1)=O)C=C2))","[O-][N+](=O)C1C=CC2CCC(O)=CC=2C=1","InChI=1S/C10H9NO3/c12-10-4-2-7-1-3-9(11(13)14)5-8(7)6-10/h1,3,5-6,12H,2,4H2","HWTINUJHJZQIKX-UHFFFAOYSA-N","?","25","spectrophotometric","a1/apparent","?","acidic",11.76
"13185","O=C(C(C)(C)C)CC(=O)C(C)(C)C","CC(C)(C)C(O)=CC(=O)C(C)(C)C","InChI=1S/C11H20O2/c1-10(2,3)8(12)7-9(13)11(4,5)6/h7,12H,1-6H3","SOZFXLUMSLXZFW-UHFFFAOYSA-N","?","25",,"a1/apparent","?","acidic",11.77
"10650","S=CNC1(=CC(N(C)C)=CC=C1)","CN(C)C1C=C(C=CC=1)NC=S","InChI=1S/C9H12N2S/c1-11(2)9-5-3-4-8(6-9)10-7-12/h3-7H,1-2H3,(H,10,12)","VFCWYEQJVBQKPD-UHFFFAOYSA-N","?","20","potentiometric","a1/apparent","?","acidic",11.78
"15366","OC(C1(=CC=NC=C1))(C2(=CC=NC=C2))C3(=CC=NC=C3)","OC(C1C=CN=CC=1)(C1C=CN=CC=1)C1C=CN=CC=1","InChI=1S/C16H13N3O/c20-16(13-1-7-17-8-2-13,14-3-9-18-10-4-14)15-5-11-19-12-6-15/h1-12,20H","LGHLTRASRAEIPD-UHFFFAOYSA-N","?","20",,"a/apparent","?","acidic",11.8
"15317","OC=1(N(N=C(C=1CC2(=CC=CC=C2))C)C3(=CC=CC=C3))","CC1=NN(C(O)=C1CC1C=CC=CC=1)C1C=CC=CC=1","InChI=1S/C17H16N2O/c1-13-16(12-14-8-4-2-5-9-14)17(20)19(18-13)15-10-6-3-7-11-15/h2-11,20H,12H2,1H3","KYEQUVYTIZMYOG-UHFFFAOYSA-N","?",,"potentiometric","b/apparent","?","acidic",11.8
"17228","O(O)CC","CCOO","InChI=1S/C2H6O2/c1-2-4-3/h3H,2H2,1H3","ILHIHKRJJMKBEE-UHFFFAOYSA-N","?","20","spectrophotometric","a/apparent","?","acidic",11.8
"14840","O=C(OCC)C(C(=O)C)CC1(=CC=CC=C1)","CC(=O)C(CC1C=CC=CC=1)=C(O)OCC","InChI=1S/C13H16O3/c1-3-16-13(15)12(10(2)14)9-11-7-5-4-6-8-11/h4-8,15H,3,9H2,1-2H3","RFVSEEKNXPQYFM-UHFFFAOYSA-N","?","25","spectrophotometric","a1/thermodynamic","?","acidic",11.81
"15756","S=C(NC1(=CC=C(C)C=C1))C2(=CC=C(OC)C=C2)","CC1C=CC(=CC=1)NC(=S)C1C=CC(=CC=1)OC","InChI=1S/C15H15NOS/c1-11-3-7-13(8-4-11)16-15(18)12-5-9-14(17-2)10-6-12/h3-10H,1-2H3,(H,16,18)","IWVCEMRFDGIEMT-UHFFFAOYSA-N","?",,"spectrophotometric","a1/apparent","?","acidic",11.81
"15588","ClC=CC1(=CC(=C(O)C(=C1)C(C)(C)C)C(C)(C)C)","CC(C)(C)C1=CC(C=CCl)=CC(=C1O)C(C)(C)C","InChI=1S/C16H23ClO/c1-15(2,3)12-9-11(7-8-17)10-13(14(12)18)16(4,5)6/h7-10,18H,1-6H3","PAJURZTYRDFEOU-UHFFFAOYSA-N","?","25","spectrophotometric","a1/apparent","H","acidic",11.82
"10707","S=C(N)C1(=CC=C([N+](=O)[O-])C=C1)","NC(=S)C1C=CC(=CC=1)[N+]([O-])=O","InChI=1S/C7H6N2O2S/c8-7(12)5-1-3-6(4-2-5)9(10)11/h1-4H,(H2,8,12)","MDBQPBMIZPCKAJ-UHFFFAOYSA-N","?","20","potentiometric","a1/apparent","?","acidic",11.84
"14964","[N+]=1(C=3(C(C=C2(C=1C=CC=C2))=CC=C(C=3)N))(C)","C[N+]1C2=CC(N)=CC=C2C=C2C=CC=CC=12","InChI=1S/C14H12N2/c1-16-13-5-3-2-4-10(13)8-11-6-7-12(15)9-14(11)16/h2-9,15H,1H3/p+1","NJLGSVSVNHBQEG-UHFFFAOYSA-O","?","25","potentiometric","a/apparent","?","acidic",11.85
"16641","S=C(NC1(=CC=C(OC)C=C1))C2(=CC=C(OC)C=C2)","COC1C=CC(=CC=1)NC(=S)C1C=CC(=CC=1)OC","InChI=1S/C15H15NO2S/c1-17-13-7-3-11(4-8-13)15(19)16-12-5-9-14(18-2)10-6-12/h3-10H,1-2H3,(H,16,19)","RSQQANOVEBEVQT-UHFFFAOYSA-N","?",,"spectrophotometric","a1/apparent","?","acidic",11.85
"12933","O=C1(N(CCC(N1)=O)C)","CN1CCC(O)=NC1=O","InChI=1S/C5H8N2O2/c1-7-3-2-4(8)6-5(7)9/h2-3H2,1H3,(H,6,8,9)","LPQUIFIUJKZJRT-UHFFFAOYSA-N","?","25","spectrophotometric","a1/thermodynamic","OCNHCO","acidic",11.86
"12460","ClC2(=CC=C(C(=O)C1(=NNC=C1))C=C2)","O=C(C1C=CNN=1)C1C=CC(Cl)=CC=1","InChI=1S/C10H7ClN2O/c11-8-3-1-7(2-4-8)10(14)9-5-6-12-13-9/h1-6H,(H,12,13)","YQRISINPLABDKE-UHFFFAOYSA-N","?",,"spectrophotometric","a/apparent","?","acidic",11.87
"16220","O=C(OCC)C(C(=O)C)CC1(=CC(=CC=C1)C)","CCOC(O)=C(CC1=CC(C)=CC=C1)C(C)=O","InChI=1S/C14H18O3/c1-4-17-14(16)13(11(3)15)9-12-7-5-6-10(2)8-12/h5-8,16H,4,9H2,1-3H3","WIJIIKXRSOZZMN-UHFFFAOYSA-N","?","25","spectrophotometric","a1/thermodynamic","?","acidic",11.87
"16284","S(=O)(=O)(NCCC(=N)NC)C1(=CC=C(C)C=C1)","CC1C=CC(=CC=1)S(=O)(=O)NCCC(=N)NC","InChI=1S/C11H17N3O2S/c1-9-3-5-10(6-4-9)17(15,16)14-8-7-11(12)13-2/h3-6,14H,7-8H2,1-2H3,(H2,12,13)","HIIDLIGAVLKJIX-UHFFFAOYSA-N","?","24.9","potentiometric","a2/apparent","C(=NH)NHMe","acidic",11.9
"15369","OC(C1(=CN=CC=C1))(C2(=CC=NC=C2))C3(=CC=NC=C3)","OC(C1=CN=CC=C1)(C1C=CN=CC=1)C1C=CN=CC=1","InChI=1S/C16H13N3O/c20-16(13-3-8-17-9-4-13,14-5-10-18-11-6-14)15-2-1-7-19-12-15/h1-12,20H","SRXLJFCDTHMAFC-UHFFFAOYSA-N","?","20",,"a/apparent","?","acidic",11.9
"16714","OC=1(N(N=C(C=1C2(=CC=CC=C2))C)C3(=CC=CC=C3))","CC1=NN(C(O)=C1C1C=CC=CC=1)C1C=CC=CC=1","InChI=1S/C16H14N2O/c1-12-15(13-8-4-2-5-9-13)16(19)18(17-12)14-10-6-3-7-11-14/h2-11,19H,1H3","FHTQNZVFYHIKPF-UHFFFAOYSA-N","?",,"potentiometric","b/apparent","?","acidic",11.9
"10621","O=C1(C(C(=O)OCC)CCCC1)","CCOC(=O)C1CCCC=C1O","InChI=1S/C9H14O3/c1-2-12-9(11)7-5-3-4-6-8(7)10/h6-7,10H,2-5H2,1H3","DQNJZJRBBPDPJW-UHFFFAOYSA-N","?","25","mean from 2","apparent","?","acidic",11.9
"17164","N1(=C(NC2(=C1C=CC=C2))C3(=CC=CC=C3))","C1=CC=CC=C1C1NC2C=CC=CC=2N=1","InChI=1S/C13H10N2/c1-2-6-10(7-3-1)13-14-11-8-4-5-9-12(11)15-13/h1-9H,(H,14,15)","DWYHDSLIWMUSOO-UHFFFAOYSA-N","?","25","spectrophotometric","b2/thermodynamic","?","acidic",11.91
"11844","P(=O)(CC(=O)C)(CC)CC","CCP(=O)(CC(=C)O)CC","InChI=1S/C7H15O2P/c1-4-10(9,5-2)6-7(3)8/h8H,3-6H2,1-2H3","KFRCCHJLPKDFIS-UHFFFAOYSA-N","?","25","potentiometric","a1/apparent","?","acidic",11.94
"10862","S=C(NC1(=CC=C(OC)C=C1))C","CC(=S)NC1C=CC(=CC=1)OC","InChI=1S/C9H11NOS/c1-7(12)10-8-3-5-9(11-2)6-4-8/h3-6H,1-2H3,(H,10,12)","WZNUJVLBHDEJDY-UHFFFAOYSA-N","?","20","potentiometric","a1/apparent","?","acidic",11.96
"10652","S=CNC1(=CC=C(N(C)C)C=C1)","CN(C)C1C=CC(=CC=1)NC=S","InChI=1S/C9H12N2S/c1-11(2)9-5-3-8(4-6-9)10-7-12/h3-7H,1-2H3,(H,10,12)","XGLLNMJZQOBFQM-UHFFFAOYSA-N","?","20","potentiometric","a1/apparent","?","acidic",11.96
"13345","O=C(C1(=CC=CC=C1))C2(=NNC=C2)","O=C(C1C=CNN=1)C1C=CC=CC=1","InChI=1S/C10H8N2O/c13-10(9-6-7-11-12-9)8-4-2-1-3-5-8/h1-7H,(H,11,12)","UYMQWGLCXYHTES-UHFFFAOYSA-N","?",,"spectrophotometric","a/apparent","?","acidic",11.97
"14315","ClC1(=CC(NC(=S)N)=CC=C1)","NC(=S)NC1C=C(Cl)C=CC=1","InChI=1S/C7H7ClN2S/c8-5-2-1-3-6(4-5)10-7(9)11/h1-4H,(H3,9,10,11)","LSYZRUOXXOTVAV-UHFFFAOYSA-N","?","25","spectrophotometric","a1/apparent","?","acidic",12.0
"10366","OC(=C(C(=C)C)C)C","CC(C(C)=C)=C(C)O","InChI=1S/C7H12O/c1-5(2)6(3)7(4)8/h8H,1H2,2-4H3","LOHURIFKWWXDSX-UHFFFAOYSA-N","?","20",,"a1/apparent","OH","acidic",12.01
"12450","O=C(C1(=CC=C(C)C=C1))C2(=NNC=C2)","CC1C=CC(=CC=1)C(=O)C1C=CNN=1","InChI=1S/C11H10N2O/c1-8-2-4-9(5-3-8)11(14)10-6-7-12-13-10/h2-7H,1H3,(H,12,13)","ZLKDALHIEFVHIK-UHFFFAOYSA-N","?",,"spectrophotometric","a/apparent","?","acidic",12.02
"10531","OC1(=C(C(=C(O)C(=C1C)C)C)C)","CC1C(O)=C(C)C(C)=C(O)C=1C","InChI=1S/C10H14O2/c1-5-6(2)10(12)8(4)7(3)9(5)11/h11-12H,1-4H3","SUNVJLYYDZCIIK-UHFFFAOYSA-N","?, ?","24","mean from 2","a1/apparent","?, ?","acidic",12.045
"17208","N3(=C(C1(=NC=2(C=CC=CC=2(N1))))C=CC=C3)","C1=CC=CC(=N1)C1NC2C=CC=CC=2N=1","InChI=1S/C12H9N3/c1-2-6-10-9(5-1)14-12(15-10)11-7-3-4-8-13-11/h1-8H,(H,14,15)","YNFBMDWHEHETJW-UHFFFAOYSA-N","?","25","spectrophotometric","a3/apparent","NH","acidic",12.05
"17003","O=C(C1(=CC=C(OC)C=C1))C2(=NNC=C2)","COC1C=CC(=CC=1)C(=O)C1C=CNN=1","InChI=1S/C11H10N2O2/c1-15-9-4-2-8(3-5-9)11(14)10-6-7-12-13-10/h2-7H,1H3,(H,12,13)","YPEMQMDWCPHMIW-UHFFFAOYSA-N","?",,"spectrophotometric","a/apparent","?","acidic",12.09
"17492","O(O)C(C)C","CC(C)OO","InChI=1S/C3H8O2/c1-3(2)5-4/h3-4H,1-2H3","SGJUFIMCHSLMRJ-UHFFFAOYSA-N","?","20","spectrophotometric","a/apparent","?","acidic",12.1
"11979","[O-]C1(=NC=NC2(=C1NC=N2))","OC1=NC=NC2N=CNC=21","InChI=1S/C5H4N4O/c10-5-3-4(7-1-6-3)8-2-9-5/h1-2H,(H2,6,7,8,9,10)","FDGQSTZJBFJUBT-UHFFFAOYSA-N","?","20","potentiometric","a3/apparent","?","acidic",12.1
"12726","N2(=C1(NC=CC1=CC=C2))","C1=CC=C2C=CNC2=N1","InChI=1S/C7H6N2/c1-2-6-3-5-9-7(6)8-4-1/h1-5H,(H,8,9)","MVXVYAKCVDQRLW-UHFFFAOYSA-N","?","26",,"a1/apparent","N-H","acidic",12.1
"12955","O=C(N)C1(=NC=CC=C1)","NC(=O)C1C=CC=CN=1","InChI=1S/C6H6N2O/c7-6(9)5-3-1-2-4-8-5/h1-4H,(H2,7,9)","IBBMAWULFFBRKK-UHFFFAOYSA-N","?","25","potentiometric","b/apparent","?","acidic",12.12
"17626","S(C(O)(O)C)CC","CCSC(C)(O)O","InChI=1S/C4H10O2S/c1-3-7-4(2,5)6/h5-6H,3H2,1-2H3","MLEUTGQVJFMADW-UHFFFAOYSA-N","?","25",,"a1/apparent","OH","acidic",12.13
"13337","OC2(=NN(C1(=CC=CC=C1))C(=C2)C)","CC1=CC(O)=NN1C1C=CC=CC=1","InChI=1S/C10H10N2O/c1-8-7-10(13)11-12(8)9-5-3-2-4-6-9/h2-7H,1H3,(H,11,13)","QBPBVVYCXXLMSY-UHFFFAOYSA-N","?",,"mean from 2","b/apparent","?","acidic",12.14
"15125","S=C(NCC1(=CC=CC=C1))C2(=CC=CC=C2)","S=C(NCC1C=CC=CC=1)C1C=CC=CC=1","InChI=1S/C14H13NS/c16-14(13-9-5-2-6-10-13)15-11-12-7-3-1-4-8-12/h1-10H,11H2,(H,15,16)","GMOICCILTLBRTM-UHFFFAOYSA-N","?","20","potentiometric","a1/apparent","?","acidic",12.16
"14070","P(=O)(CCC)(CCC)CCC","CCCP(=O)(CCC)CCC","InChI=1S/C9H21OP/c1-4-7-11(10,8-5-2)9-6-3/h4-9H2,1-3H3","SNZSAFILJOCMFM-UHFFFAOYSA-N","?","25","conductometric","a1/apparent","?","acidic",12.16
"17093","O=C(C1(=CC=CC=C1))CC2(=NC=CC=C2)","OC(=CC1C=CC=CN=1)C1C=CC=CC=1","InChI=1S/C13H11NO/c15-13(11-6-2-1-3-7-11)10-12-8-4-5-9-14-12/h1-10,15H","IXQUHMXYFKDBDA-UHFFFAOYSA-N","?, ?, ?","25","spectrophotometric","a1/apparent","?, ?, ?","acidic",12.196666666666665
"15723","O=C([O-])C2(=C(N1(N=C(O)C(=C1C)CC))C=CC=C2)","CC1=C(CC)C(O)=NN1C1=CC=CC=C1C(O)=O","InChI=1S/C13H14N2O3/c1-3-9-8(2)15(14-12(9)16)11-7-5-4-6-10(11)13(17)18/h4-7H,3H2,1-2H3,(H,14,16)(H,17,18)","APRYDRRWEVQGLM-UHFFFAOYSA-N","?",,"potentiometric","b/apparent","?","acidic",12.2
"15538","OC=1(N(N=C(C=1)C2(=CC=CC=C2))C3(=CC=CC=C3))","OC1=CC(=NN1C1C=CC=CC=1)C1C=CC=CC=1","InChI=1S/C15H12N2O/c18-15-11-14(12-7-3-1-4-8-12)16-17(15)13-9-5-2-6-10-13/h1-11,18H","BWLTYPQWNLIJTE-UHFFFAOYSA-N","?",,"potentiometric","b/apparent","?","acidic",12.2
"13042","OC(O)C1(=CC=NC=C1)","OC(O)C1C=CN=CC=1","InChI=1S/C6H7NO2/c8-6(9)5-1-3-7-4-2-5/h1-4,6,8-9H","MWSYYKKFGBHLTN-UHFFFAOYSA-N","?","20","spectrophotometric","a2/apparent","prot.","acidic",12.2
"16014","OC1(=NC=2(C=C3(CCCCC3(=CC=2(N1)))))","OC1NC2C=C3CCCCC3=CC=2N=1","InChI=1S/C11H12N2O/c14-11-12-9-5-7-3-1-2-4-8(7)6-10(9)13-11/h5-6H,1-4H2,(H2,12,13,14)","OCAZINHLZPIDRF-UHFFFAOYSA-N","?","20","spectrophotometric","a1/apparent","?","acidic",12.21
"17106","O=C(C1(=CC=[N+](C)C=C1))C2(=CC=CC=C2)","C[N+]1C=CC(=CC=1)C(=O)C1C=CC=CC=1","InChI=1S/C13H12NO/c1-14-9-7-12(8-10-14)13(15)11-5-3-2-4-6-11/h2-10H,1H3/q+1","KIIFMEZUSAELQK-UHFFFAOYSA-N","?","25",,"a1/apparent","?","acidic",12.25
"10961","ClC2(=CC1(=C(CCC(C1)=O)C=C2))","OC1CCC2C=CC(Cl)=CC=2C=1","InChI=1S/C10H9ClO/c11-9-3-1-7-2-4-10(12)6-8(7)5-9/h1,3,5-6,12H,2,4H2","VSSTTXUBIQFARL-UHFFFAOYSA-N","?","25","spectrophotometric","a1/apparent","?","acidic",12.3
"17023","OC2(=NN(C1(=CC=CC=C1))C(=C2CC)C)","CC1=C(CC)C(O)=NN1C1C=CC=CC=1","InChI=1S/C12H14N2O/c1-3-11-9(2)14(13-12(11)15)10-7-5-4-6-8-10/h4-8H,3H2,1-2H3,(H,13,15)","UYPNQRQZAJXQPZ-UHFFFAOYSA-N","?",,"potentiometric","b/apparent","?","acidic",12.3
"15340","O=C(N)C3(=CC(OC)=C(C1(=NC2(=NN(C)C=C2(N1))))C=C3)","CN1C=C2NC(=NC2=N1)C1C=CC(=CC=1OC)C(N)=O","InChI=1S/C13H13N5O2/c1-18-6-9-13(17-18)16-12(15-9)8-4-3-7(11(14)19)5-10(8)20-2/h3-6H,1-2H3,(H2,14,19)(H,15,16,17)","KCXTUXOGEKLGPM-UHFFFAOYSA-N","?","25","spectrophotometric","a1/apparent","?","acidic",12.3
"15721","O=C(OCC)C2(=C(N1(N=C(O)C=C1C))C=CC=C2)","CC1=CC(O)=NN1C1C=CC=CC=1C(=O)OCC","InChI=1S/C13H14N2O3/c1-3-18-13(17)10-6-4-5-7-11(10)15-9(2)8-12(16)14-15/h4-8H,3H2,1-2H3,(H,14,16)","LRICKRXKVQOWRY-UHFFFAOYSA-N","?",,"potentiometric","b/apparent","?","acidic",12.3
"14034","N=2(C1(=C(N)C=CC=C1NC=2C))","CC1NC2=CC=CC(N)=C2N=1","InChI=1S/C8H9N3/c1-5-10-7-4-2-3-6(9)8(7)11-5/h2-4H,9H2,1H3,(H,10,11)","USVXDODAPOBXCF-UHFFFAOYSA-N","?",,"potentiometric","b2/apparent","?","acidic",12.3
"11663","S=CNCC1(=CC=CC=C1)","S=CNCC1C=CC=CC=1","InChI=1S/C8H9NS/c10-7-9-6-8-4-2-1-3-5-8/h1-5,7H,6H2,(H,9,10)","QAADZYUXQLUXFX-UHFFFAOYSA-N","?","20","potentiometric","a1/apparent","?","acidic",12.3
"11535","FC(F)(F)C1(=NNC(=C1)C)","CC1=CC(=NN1)C(F)(F)F","InChI=1S/C5H5F3N2/c1-3-2-4(10-9-3)5(6,7)8/h2H,1H3,(H,9,10)","DLCHCAYDSKIFIN-UHFFFAOYSA-N","?","25",,"a1/apparent","N-H","acidic",12.33
"10966","IC2(=CC1(=C(CC(=O)CC1)C=C2))","OC1CC2C=CC(I)=CC=2CC=1","InChI=1S/C10H9IO/c11-9-3-1-8-6-10(12)4-2-7(8)5-9/h1,3-5,12H,2,6H2","RYNZUYFVTRGQRU-UHFFFAOYSA-N","?","25","spectrophotometric","a1/apparent","?","acidic",12.36
"15414","O=C(OCC)C2(=C(N1(N=C(O)C(=C1C)CC))C=CC=C2)","CC1=C(CC)C(O)=NN1C1C=CC=CC=1C(=O)OCC","InChI=1S/C15H18N2O3/c1-4-11-10(3)17(16-14(11)18)13-9-7-6-8-12(13)15(19)20-5-2/h6-9H,4-5H2,1-3H3,(H,16,18)","ADEKFCQHEOMODS-UHFFFAOYSA-N","?",,"potentiometric","b/apparent","?","acidic",12.4
"16557","O=C(N1(CCCCC1))C3(=C(N2(N=C(O)C=C2C))C=CC=C3)","CC1=CC(O)=NN1C1C=CC=CC=1C(=O)N1CCCCC1","InChI=1S/C16H19N3O2/c1-12-11-15(20)17-19(12)14-8-4-3-7-13(14)16(21)18-9-5-2-6-10-18/h3-4,7-8,11H,2,5-6,9-10H2,1H3,(H,17,20)","HELBBOXAZXBHEO-UHFFFAOYSA-N","?",,"potentiometric","b/apparent","?","acidic",12.4
"12981","O([N+]1(=C(N)C=CC=C1))C","CO[N+]1C=CC=CC=1N","InChI=1S/C6H8N2O/c1-9-8-5-3-2-4-6(8)7/h2-5,7H,1H3/p+1","UPTMUZOBCOHGST-UHFFFAOYSA-O","?",,"spectrophotometric","a/apparent","?","acidic",12.4
"12803","O=C1(C=CCC(C1)(C)C)","CC1(C)CC=CC(O)=C1","InChI=1S/C8H12O/c1-8(2)5-3-4-7(9)6-8/h3-4,6,9H,5H2,1-2H3","QKWGJNVTNJJTKE-UHFFFAOYSA-N","?","24.9",,"b1/apparent","?","acidic",12.4
"12772","OC(O)C1(=CC=CC=C1)","OC(O)C1C=CC=CC=1","InChI=1S/C7H8O2/c8-7(9)6-4-2-1-3-5-6/h1-5,7-9H","SNGARVZXPNQWEY-UHFFFAOYSA-N","?","25",,"a1/apparent","?","acidic",12.43
"11569","O=C(NN)C1(=CC=CC=C1)","NNC(=O)C1C=CC=CC=1","InChI=1S/C7H8N2O/c8-9-7(10)6-4-2-1-3-5-6/h1-5H,8H2,(H,9,10)","WARCRYXKINZHGQ-UHFFFAOYSA-N","?","20","potentiometric","a2/apparent","?","acidic",12.45
"14581","O=C(NN)C1(=CC(N)=CC=C1)","NC1C=C(C=CC=1)C(=O)NN","InChI=1S/C7H9N3O/c8-6-3-1-2-5(4-6)7(11)10-9/h1-4H,8-9H2,(H,10,11)","JSIVTKBYJLGBPY-UHFFFAOYSA-N","?","25","potentiometric","a3/apparent","?","acidic",12.45
"11658","[Br]C1(=CC=C(C(=S)N)C=C1)","NC(=S)C1C=CC(Br)=CC=1","InChI=1S/C7H6BrNS/c8-6-3-1-5(2-4-6)7(9)10/h1-4H,(H2,9,10)","AIPANIYQEBQYGC-UHFFFAOYSA-N","?","20","potentiometric","a1/apparent","?","acidic",12.46
"16542","O=C([O-])C3(=C(N1(N=C(O)C=C1C2(=CC=CC=C2)))C=CC=C3)","OC1C=C(C2C=CC=CC=2)N(N=1)C1=CC=CC=C1C(O)=O","InChI=1S/C16H12N2O3/c19-15-10-14(11-6-2-1-3-7-11)18(17-15)13-9-5-4-8-12(13)16(20)21/h1-10H,(H,17,19)(H,20,21)","DVDAQXXWGTVYQZ-UHFFFAOYSA-N","?",,"potentiometric","b/apparent","?","acidic",12.5
"10963","ClC2(=CC1(=C(CC(=O)CC1)C=C2))","OC1CC2C=CC(Cl)=CC=2CC=1","InChI=1S/C10H9ClO/c11-9-3-1-8-6-10(12)4-2-7(8)5-9/h1,3-5,12H,2,6H2","IYTDWOSDWGFCTL-UHFFFAOYSA-N","?","25","spectrophotometric","a1/apparent","?","acidic",12.51