"Molecule name","OriginalSmiles","Canonical_QSARr","InChI_Code_QSARr","InChI Key_QSARr","Salt_Solvent (Concatenate)","temp","method","type","group","basicOrAcidic","pKa"
"13515","O=C(OCCC)C1(=CC=C(O)C=C1)","CCCOC(=O)C1C=CC(O)=CC=1","InChI=1S/C10H12O3/c1-2-7-13-10(12)8-3-5-9(11)6-4-8/h3-6,11H,2,7H2,1H3","QELSKZZBTMNZEB-UHFFFAOYSA-N","?","20","spectrophotometric","b1/apparent","H-O","acidic",8.3
"16315","FC3(=CC1(=C(OCCC12(NC(=O)NC2=O))C=C3))","O=C1NC(=O)C2(CCOC3C=CC(F)=CC2=3)N1","InChI=1S/C11H9FN2O3/c12-6-1-2-8-7(5-6)11(3-4-17-8)9(15)13-10(16)14-11/h1-2,5H,3-4H2,(H2,13,14,15,16)","LXANPKRCLVQAOG-UHFFFAOYSA-N","?","23",,"a1/thermodynamic","N-3'-H","acidic",8.3
"16352","O=C2(OC1(=C(C=CC=C1)C(=C2CC3(C(=O)OC=4(C=CC=CC=4(C3=O))))[O-]))","OC1OC2C=CC=CC=2C(=O)C=1CC1C(=O)OC2=CC=CC=C2C=1O","InChI=1S/C19H12O6/c20-16-10-5-1-3-7-14(10)24-18(22)12(16)9-13-17(21)11-6-2-4-8-15(11)25-19(13)23/h1-8,20,23H,9H2","WLGGMGIBZYKGMP-UHFFFAOYSA-N","?",,"potentiometric","a2/apparent","?","acidic",8.3
"11539","O=C(NO)C1(=CN=CC=C1)","ONC(=O)C1C=CC=NC=1","InChI=1S/C6H6N2O2/c9-6(8-10)5-2-1-3-7-4-5/h1-4,10H,(H,8,9)","IYCHDNQCHLMLJZ-UHFFFAOYSA-N","?","25","potentiometric","a/apparent","?","acidic",8.3
"16069","O=C(OCC1(=CC=CC=C1))C2(=CC=C(O)C=C2)","OC1=CC=C(C=C1)C(=O)OCC1C=CC=CC=1","InChI=1S/C14H12O3/c15-13-8-6-12(7-9-13)14(16)17-10-11-4-2-1-3-5-11/h1-9,15H,10H2","MOZDKDIOPSPTBH-UHFFFAOYSA-N","?","25",,"thermodynamic","?","acidic",8.31
"11797","O=[N+]([O-])C1(=CC(O)=CC=C1)","[O-][N+](=O)C1C=CC=C(O)C=1","InChI=1S/C6H5NO3/c8-6-3-1-2-5(4-6)7(9)10/h1-4,8H","RTZZCYNQPHTPPL-UHFFFAOYSA-N","?","24","mean from 17","a1/apparent","O-H","acidic",8.31
"14466","O=C(C1(=CC=CC=C1))C=NO","O=C(CN=O)C1C=CC=CC=1","InChI=1S/C8H7NO2/c10-8(6-9-11)7-4-2-1-3-5-7/h1-5H,6H2","FYMROLWPUWRMPR-UHFFFAOYSA-N","?","23","mean from 3","a1/apparent","?","acidic",8.31
"15982","S(=O)(=O)(NCC[NH+](C)C)C=2(C=1(C(=C(N(C)C)C=CC=1)C=CC=2))","CN(C)CCNS(=O)(=O)C1=CC=CC2C1=CC=CC=2N(C)C","InChI=1S/C16H23N3O2S/c1-18(2)12-11-17-22(20,21)16-10-6-7-13-14(16)8-5-9-15(13)19(3)4/h5-10,17H,11-12H2,1-4H3","NPYRWTUWELBQJS-UHFFFAOYSA-N","?","25","potentiometric","a2/apparent","?","acidic",8.33
"13851","OC=2(C1(=NC=CC=C1C=NC=2))","OC1=CN=CC2=CC=CN=C21","InChI=1S/C8H6N2O/c11-7-5-9-4-6-2-1-3-10-8(6)7/h1-5,11H","WHFQWQIDXMOZBD-UHFFFAOYSA-N","?","20","potentiometric","a1/apparent","?","acidic",8.33
"13649","O=C1(C=C(C(=NO)C(=C1)CC)CC)","CCC1=CC(=O)C=C(CC)C1N=O","InChI=1S/C10H13NO2/c1-3-7-5-9(12)6-8(4-2)10(7)11-13/h5-6,10H,3-4H2,1-2H3","KZVQIQLLKAHZPL-UHFFFAOYSA-N","?","25","potentiometric","a/apparent","?","acidic",8.34
"12108","O=C(OCCCC)C1(=CC=C(O)C=C1)","CCCCOC(=O)C1C=CC(O)=CC=1","InChI=1S/C11H14O3/c1-2-3-8-14-11(13)9-4-6-10(12)7-5-9/h4-7,12H,2-3,8H2,1H3","QFOHBWFCKVYLES-UHFFFAOYSA-N","?","25",,"thermodynamic","?","acidic",8.34
"16667","S(=O)(=O)(NC1(=NC(=CC(=N1)C)C))C2(=CC=C(O)C=C2)","CC1C=C(C)N=C(NS(=O)(=O)C2C=CC(O)=CC=2)N=1","InChI=1S/C12H13N3O3S/c1-8-7-9(2)14-12(13-8)15-19(17,18)11-5-3-10(16)4-6-11/h3-7,16H,1-2H3,(H,13,14,15)","HUFOVXFUJPUAQR-UHFFFAOYSA-N","?, ?",,"spectrophotometric","a1/apparent","?, ?","acidic",8.34
"14250","O=C(OC)C1(=CC=C(O)C=C1)","COC(=O)C1C=CC(O)=CC=1","InChI=1S/C8H8O3/c1-11-8(10)6-2-4-7(9)5-3-6/h2-5,9H,1H3","LXCFILQKKLGQFO-UHFFFAOYSA-N","?","25",,"thermodynamic","?","acidic",8.34
"17406","O=C(N)CNC","CN=CC(N)O","InChI=1S/C3H8N2O/c1-5-2-3(4)6/h2-3,6H,4H2,1H3","YKCNIFJYVKXRNF-UHFFFAOYSA-N","?","25","potentiometric","a/apparent","?","acidic",8.35
"11567","S(=O)(=O)(N)C=1(SC=C(N=1)C)","CC1=CSC(=N1)S(N)(=O)=O","InChI=1S/C4H6N2O2S2/c1-3-2-9-4(6-3)10(5,7)8/h2H,1H3,(H2,5,7,8)","HVWDXZKRDDSTTF-UHFFFAOYSA-N","?",,"mean from 2","a/apparent","?","acidic",8.35
"16246","S=C(N(CC)CC)NC(=O)C1(=CC(=CC=C1)C)","CC1C=C(C=CC=1)C(=O)NC(=S)N(CC)CC","InChI=1S/C13H18N2OS/c1-4-15(5-2)13(17)14-12(16)11-8-6-7-10(3)9-11/h6-9H,4-5H2,1-3H3,(H,14,16,17)","IAOPSRFCDOQKGU-UHFFFAOYSA-N","?","25","spectrophotometric","a1/apparent","?","acidic",8.36
"14446","O=C(N(O)C1(=CC=CC=C1))C","C=C(O)N(O)C1C=CC=CC=1","InChI=1S/C8H9NO2/c1-7(10)9(11)8-5-3-2-4-6-8/h2-6,10-11H,1H2","CKIRDCMWPFDYDC-UHFFFAOYSA-N","?","25","mean from 3","a1/apparent","H(1+)","acidic",8.36
"17447","O=C(C=NO)C","C=C(O)CN=O","InChI=1S/C3H5NO2/c1-3(5)2-4-6/h5H,1-2H2","VOCIZSVWVDXPGI-UHFFFAOYSA-N","?, ?","24","mean from 5","a1/apparent","?, ?","acidic",8.365
"17704","O=C(C=NO)CC","CC=C(O)CN=O","InChI=1S/C4H7NO2/c1-2-4(6)3-5-7/h2,6H,3H2,1H3","PMIJUFVGAVDTLZ-UHFFFAOYSA-N","?","25","potentiometric","a/apparent","?","acidic",8.37
"12747","N1(=NC=2(C=CC=CC=2(N1)))","C1=CC=CC2NN=NC=21","InChI=1S/C6H5N3/c1-2-4-6-5(3-1)7-9-8-6/h1-4H,(H,7,8,9)","QRUDEWIWKLJBPS-UHFFFAOYSA-N","?","22","mean from 4","a1/apparent","?","acidic",8.39
"15144","OC2(=CC=C(C=CC1(=[N+](C=CC=C1)C))C=C2)","C[N+]1C=CC=CC=1/C=C/C1C=CC(O)=CC=1","InChI=1S/C14H13NO/c1-15-11-3-2-4-13(15)8-5-12-6-9-14(16)10-7-12/h2-11H,1H3/p+1","WLHKMTNVCBYKQU-UHFFFAOYSA-O","?","25","spectrophotometric","b1/apparent","O","acidic",8.4
"16113","OC=1(NN=C(C=1CCCCC)C2(=CC=CC=C2))","CCCCCC1=C(O)NN=C1C1C=CC=CC=1","InChI=1S/C14H18N2O/c1-2-3-5-10-12-13(15-16-14(12)17)11-8-6-4-7-9-11/h4,6-9H,2-3,5,10H2,1H3,(H2,15,16,17)","WYASIHROIFBSFW-UHFFFAOYSA-N","?",,"potentiometric","a/apparent","?","acidic",8.4
"13183","S1(C(=NN=C1C)C=NO)","CC1=NN=C(CN=O)S1","InChI=1S/C4H5N3OS/c1-3-6-7-4(9-3)2-5-8/h2H2,1H3","HORJGYREMAZOBY-UHFFFAOYSA-N","?","25","potentiometric","a1/apparent","?","acidic",8.4
"11605","O=C1(NC(=NO)C(=O)C=C1)","O=C1C=CC(=O)NC1N=O","InChI=1S/C5H4N2O3/c8-3-1-2-4(9)6-5(3)7-10/h1-2,5H,(H,6,9)","JEQVIJMIZCEULT-UHFFFAOYSA-N","?",,"potentiometric","a/apparent","?","acidic",8.4
"10037","[Br]C1(=C(O)C=CC=C1)","OC1C=CC=CC=1Br","InChI=1S/C6H5BrO/c7-5-3-1-2-4-6(5)8/h1-4,8H","VADKRMSMGWJZCF-UHFFFAOYSA-N","?","25","mean from 5","a1/apparent","OH","acidic",8.4
"10036","IC1(=C(O)C=CC=C1)","OC1C=CC=CC=1I","InChI=1S/C6H5IO/c7-5-3-1-2-4-6(5)8/h1-4,8H","KQDJTBPASNJQFQ-UHFFFAOYSA-N","?","25","mean from 3","thermodynamic","?","acidic",8.4
"13964","OC=2(C=1(C(=CC=NC=1)C=CC=2))","OC1=CC=CC2=CC=NC=C21","InChI=1S/C9H7NO/c11-9-3-1-2-7-4-5-10-6-8(7)9/h1-6,11H","ZIXWTPREILQLAC-UHFFFAOYSA-N","?","20","potentiometric","a2/apparent","?","acidic",8.4
"12435","ClCC1(=NC=2(C(O)=CC=C(C=2(N1C))O))","CN1C(CCl)=NC2=C1C(O)=CC=C2O","InChI=1S/C9H9ClN2O2/c1-12-7(4-10)11-8-5(13)2-3-6(14)9(8)12/h2-3,13-14H,4H2,1H3","ZHKOZJYAIZDRJQ-UHFFFAOYSA-N","?","30","spectrophotometric","a1/apparent","4-OH","acidic",8.4
"15610","O=C(NO)C1(=C(OCC[NH+](CC)CC)C=CC=C1)","CCN(CCOC1=CC=CC=C1C(=O)NO)CC","InChI=1S/C13H20N2O3/c1-3-15(4-2)9-10-18-12-8-6-5-7-11(12)13(16)14-17/h5-8,17H,3-4,9-10H2,1-2H3,(H,14,16)","JSPLOSQBJNHNHC-UHFFFAOYSA-N","?","30","potentiometric","a1/apparent","?","acidic",8.42
"14932","O=C(NC1(=CC=C(C[NH+](C)C)C=C1))C=NO","CN(C)CC1=CC=C(C=C1)NC(=O)CN=O","InChI=1S/C11H15N3O2/c1-14(2)8-9-3-5-10(6-4-9)13-11(15)7-12-16/h3-6H,7-8H2,1-2H3,(H,13,15)","ZJTHBORKDPZQDY-UHFFFAOYSA-N","?","25","potentiometric","a1/apparent","?","acidic",8.43
"17202","OC2(=CC1(=C3(C(=NC=C1C=C2)C=CC=C3)))","OC1=CC2=C3C=CC=CC3=NC=C2C=C1","InChI=1S/C13H9NO/c15-10-6-5-9-8-14-13-4-2-1-3-11(13)12(9)7-10/h1-8,15H","KKGWOQXJGQRAPQ-UHFFFAOYSA-N","?","20","spectrophotometric","a2/apparent","?","acidic",8.43
"17036","OC2(=CC=C(N=NC1(=CC=CC=C1))C=C2)","OC1C=CC(=CC=1)N=NC1C=CC=CC=1","InChI=1S/C12H10N2O/c15-12-8-6-11(7-9-12)14-13-10-4-2-1-3-5-10/h1-9,15H","BEYOBVMPDRKTNR-UHFFFAOYSA-N","?","25","mean from 2","a1/thermodynamic","OH","acidic",8.44
"14880","S=C(N(CC)CC)NC(=O)C1(=CC=CC=C1)","CCN(CC)C(=S)NC(=O)C1C=CC=CC=1","InChI=1S/C12H16N2OS/c1-3-14(4-2)12(16)13-11(15)10-8-6-5-7-9-10/h5-9H,3-4H2,1-2H3,(H,13,15,16)","UQXSQVXCEQMCPC-UHFFFAOYSA-N","?","25","spectrophotometric","a1/apparent","?","acidic",8.45
"16373","O5(C1(=C(C=C2(CC[N+]3(C(C2(=C1))CC=4(C=CC(=C(C=4(C3))OC)O))(C)))OC5))","COC1=C(O)C=CC2CC3C4=CC5OCOC=5C=C4CC[N+]3(C)CC=21","InChI=1S/C20H21NO4/c1-21-6-5-13-8-18-19(25-11-24-18)9-14(13)16(21)7-12-3-4-17(22)20(23-2)15(12)10-21/h3-4,8-9,16H,5-7,10-11H2,1-2H3/p+1","UTUGYZCGZXJEHE-UHFFFAOYSA-O","?","25","spectrophotometric","a1/apparent","?","acidic",8.45
"16168","S(=O)(=O)(NC1(=CC=CC=C1))C2(=CC=C(C)C=C2)","CC1C=CC(=CC=1)S(=O)(=O)NC1C=CC=CC=1","InChI=1S/C13H13NO2S/c1-11-7-9-13(10-8-11)17(15,16)14-12-5-3-2-4-6-12/h2-10,14H,1H3","VLVCWODDMDGANW-UHFFFAOYSA-N","?","20","spectrophotometric","a/apparent","?","acidic",8.46
"15688","S(=O)(=O)(NC1(=NC=C(N)C=C1))C2(=CC=C(N)C=C2)","NC1=CN=C(C=C1)NS(=O)(=O)C1C=CC(N)=CC=1","InChI=1S/C11H12N4O2S/c12-8-1-4-10(5-2-8)18(16,17)15-11-6-3-9(13)7-14-11/h1-7H,12-13H2,(H,14,15)","VZZVQTDKIMYMCG-UHFFFAOYSA-N","?",,"potentiometric","a/apparent","?","acidic",8.47
"17039","OC2(=C1(C(NC=C1CC[NH+](C)C)=CC=C2))","CN(C)CCC1=CNC2=CC=CC(O)=C12","InChI=1S/C12H16N2O/c1-14(2)7-6-9-8-13-10-4-3-5-11(15)12(9)10/h3-5,8,13,15H,6-7H2,1-2H3","SPCIYGNTAMCTRO-UHFFFAOYSA-N","?","30","potentiometric","a1/apparent","OH","acidic",8.47
"10045","O=C1(C(=O)CCC1=O)","OC1=CCC(=O)C1=O","InChI=1S/C5H4O3/c6-3-1-2-4(7)5(3)8/h1,6H,2H2","AOMWPMFCKXYWAQ-UHFFFAOYSA-N","?","20","potentiometric","a/apparent","?","acidic",8.48
"12318","O=C(NCCC[NH+](CC=C)C)C=NO","CN(CC=C)CCCNC(=O)CN=O","InChI=1S/C9H17N3O2/c1-3-6-12(2)7-4-5-10-9(13)8-11-14/h3H,1,4-8H2,2H3,(H,10,13)","UQLLESPZZJEDKX-UHFFFAOYSA-N","?","25","potentiometric","a1/apparent","?","acidic",8.48
"12528","O=[N+]([O-])C2(=CC=1(C(=C(O)C=CC=1)C=C2))","[O-][N+](=O)C1=CC2=CC=CC(O)=C2C=C1","InChI=1S/C10H7NO3/c12-10-3-1-2-7-6-8(11(13)14)4-5-9(7)10/h1-6,12H","VOBPSSPZWWISCT-UHFFFAOYSA-N","?","25","spectrophotometric","a/apparent","?","acidic",8.49
"16998","O=C1(NC(=O)C(N1)(C2(=CC=CC=C2))CC)","CCC1(NC(=O)NC1=O)C1C=CC=CC=1","InChI=1S/C11H12N2O2/c1-2-11(8-6-4-3-5-7-8)9(14)12-10(15)13-11/h3-7H,2H2,1H3,(H2,12,13,14,15)","UDTWZFJEMMUFLC-UHFFFAOYSA-N","?",,"spectrophotometric","a/apparent","?","acidic",8.5
"12334","O2(C(C(O)=CC1(=CC=CC=C1))=CC=C2)","OC(=CC1C=CC=CC=1)C1=CC=CO1","InChI=1S/C12H10O2/c13-11(12-7-4-8-14-12)9-10-5-2-1-3-6-10/h1-9,13H","FWGFDFMURBFBTN-UHFFFAOYSA-N","?","25",,"a1/apparent","?","acidic",8.5
"17177","OC=2(C1(=NC=CC=C1C3(=NC=CC=C3(C=2))))","OC1=CC2=CC=CN=C2C2=CC=CN=C21","InChI=1S/C12H8N2O/c15-10-7-8-3-1-5-13-11(8)9-4-2-6-14-12(9)10/h1-7,15H","PXOANWSLOXLDFQ-UHFFFAOYSA-N","?","20",,"a2/apparent","?","acidic",8.5
"12612","S(=O)(=O)(NN=C(C)C)C","CC(C)N=NS(C)(=O)=O","InChI=1S/C4H10N2O2S/c1-4(2)5-6-9(3,7)8/h4H,1-3H3","YCOKUUYZIDAIGI-UHFFFAOYSA-N","?","25","potentiometric","a/apparent","?","acidic",8.5
"10796","O=C(N(O)C)C1(=CC=C(C)C=C1)","CC1C=CC(=CC=1)C(=O)N(C)O","InChI=1S/C9H11NO2/c1-7-3-5-8(6-4-7)9(11)10(2)12/h3-6,12H,1-2H3","NTWVSQZLKBQYNV-UHFFFAOYSA-N","?","25",,"a1/apparent","N(CH3)O-H","acidic",8.5
"16198","S(=O)(=O)(NC1(=NC=CC=C1))C2(=CC=C(N)C=C2)","NC1C=CC(=CC=1)S(=O)(=O)NC1C=CC=CN=1","InChI=1S/C11H11N3O2S/c12-9-4-6-10(7-5-9)17(15,16)14-11-3-1-2-8-13-11/h1-8H,12H2,(H,13,14)","GECHUMIMRBOMGK-UHFFFAOYSA-N","?","20","mean from 3","a1/apparent","?","acidic",8.51
"10795","O=C(N(O)C)C1(=CC(=CC=C1)C)","CC1C=C(C=CC=1)C(=O)N(C)O","InChI=1S/C9H11NO2/c1-7-4-3-5-8(6-7)9(11)10(2)12/h3-6,12H,1-2H3","DSAPRHSTJMCHNG-UHFFFAOYSA-N","?","25",,"a1/apparent","?","acidic",8.52
"13969","OC=2(C=1(C(=NC=CC=1)C=CC=2))","OC1=CC=CC2=NC=CC=C21","InChI=1S/C9H7NO/c11-9-5-1-4-8-7(9)3-2-6-10-8/h1-6,11H","GYESAYHWISMZOK-UHFFFAOYSA-N","?","20","potentiometric","a2/apparent","?","acidic",8.54
"16367","ClC1(=C(Cl)C(OCC(=O)OCC)=CC=C1OC2(=CC(=C(O)C=C2)C[NH3+]))","CCOC(O)=COC1=CC=C(OC2C=C(CN)C(O)=CC=2)C(Cl)=C1Cl","InChI=1S/C17H17Cl2NO5/c1-2-23-15(22)9-24-13-5-6-14(17(19)16(13)18)25-11-3-4-12(21)10(7-11)8-20/h3-7,9,21-22H,2,8,20H2,1H3","LHLZNKSGYBZZAW-UHFFFAOYSA-N","?","25","spectrophotometric","a1/apparent","OH","acidic",8.55
"14194","[Se]1(C(C(=O)CC(=O)C)=CC=C1)","CC(=O)C=C(O)C1=CC=C[Se]1","InChI=1S/C8H8O2Se/c1-6(9)5-7(10)8-3-2-4-11-8/h2-5,10H,1H3","RDQSIDBUWMDYPO-UHFFFAOYSA-N","?",,"spectrophotometric","a/apparent","?","acidic",8.55
"14479","O=[N+]([O-])CCC1(=CC=CC=C1)","[O-][N+](=O)CCC1C=CC=CC=1","InChI=1S/C8H9NO2/c10-9(11)7-6-8-4-2-1-3-5-8/h1-5H,6-7H2","XAWCLWKTUKMCMO-UHFFFAOYSA-N","?","25","spectrophotometric","a1/apparent","H-CHNO2","acidic",8.55
"17118","ClC=1(C([N+](=O)[O-])=CC2(=CC(O)=CC=C2(C=1)))","[O-][N+](=O)C1=CC2=CC(O)=CC=C2C=C1Cl","InChI=1S/C10H6ClNO3/c11-9-4-6-1-2-8(13)3-7(6)5-10(9)12(14)15/h1-5,13H","DXLATAUCPCHBOC-UHFFFAOYSA-N","?","25","spectrophotometric","a1/apparent","?","acidic",8.56
"12813","ClC1(=C(Cl)C=CC(=C1)O)","OC1=CC(Cl)=C(Cl)C=C1","InChI=1S/C6H4Cl2O/c7-5-2-1-4(9)3-6(5)8/h1-3,9H","WDNBURPWRNALGP-UHFFFAOYSA-N","?","25","mean from 5","a1/apparent","O-H","acidic",8.58
"13914","SC=1(N=CC2(=CC=CC=C2(C=1)))","SC1=CC2=CC=CC=C2C=N1","InChI=1S/C9H7NS/c11-9-5-7-3-1-2-4-8(7)6-10-9/h1-6H,(H,10,11)","WRIZFUVYABPOLN-UHFFFAOYSA-N","?","20","spectrophotometric","a2/apparent","?","acidic",8.58
"16661","S1(C(=NC=C1)NP(=O)(OC)C2(=CC=C([N+](=O)[O-])C=C2))","COP(=O)(NC1=NC=CS1)C1C=CC(=CC=1)[N+]([O-])=O","InChI=1S/C10H10N3O4PS/c1-17-18(16,12-10-11-6-7-19-10)9-4-2-8(3-5-9)13(14)15/h2-7H,1H3,(H,11,12,16)","CVSOYYVQGHWKSX-UHFFFAOYSA-N","?",,"potentiometric","a/apparent","?","acidic",8.6
"12407","O=C1(NC(=O)C(N1)=CC2(=CC=CC=C2))","O=C1NC(=O)N=C1CC1C=CC=CC=1","InChI=1S/C10H8N2O2/c13-9-8(11-10(14)12-9)6-7-4-2-1-3-5-7/h1-5H,6H2,(H,12,13,14)","PYKIFKYHXQCDMI-UHFFFAOYSA-N","?","25","potentiometric","a/apparent","?","acidic",8.6
"15715","OC=1(NN=C(C=1CCCCCC)C2(=CC=CC=C2))","CCCCCCC1=C(O)NN=C1C1C=CC=CC=1","InChI=1S/C15H20N2O/c1-2-3-4-8-11-13-14(16-17-15(13)18)12-9-6-5-7-10-12/h5-7,9-10H,2-4,8,11H2,1H3,(H2,16,17,18)","FLJRWQRETOAQBR-UHFFFAOYSA-N","?",,"potentiometric","a/apparent","?","acidic",8.6
"11538","O=C(NO)C1(=NC=CC=C1)","ONC(=O)C1C=CC=CN=1","InChI=1S/C6H6N2O2/c9-6(8-10)5-3-1-2-4-7-5/h1-4,10H,(H,8,9)","AWJLBFXUZYCIIH-UHFFFAOYSA-N","?","20","mean from 2","a/apparent","?","acidic",8.6
"12013","OC2(=C1(NN=CC1=CC=C2))","OC1C=CC=C2C=NNC2=1","InChI=1S/C7H6N2O/c10-6-3-1-2-5-4-8-9-7(5)6/h1-4,10H,(H,8,9)","VEDLFQPHHBOHIR-UHFFFAOYSA-N","?",,"potentiometric","a/apparent","?","acidic",8.6
"12461","O=C1(C(=NO)C=C2(C(O)CN(C2(=C1))C))","CN1CC(O)C2=CC(N=O)C(=O)C=C12","InChI=1S/C9H10N2O3/c1-11-4-9(13)5-2-6(10-14)8(12)3-7(5)11/h2-3,6,9,13H,4H2,1H3","QLZKPIPHHASCSS-UHFFFAOYSA-N","?","20","potentiometric","a/apparent","?","acidic",8.6
"14141","O=C(NCCC[NH2+]C)C=NO","CNCCCNC(=O)CN=O","InChI=1S/C6H13N3O2/c1-7-3-2-4-8-6(10)5-9-11/h7H,2-5H2,1H3,(H,8,10)","FSOPVWGEOVMQDM-UHFFFAOYSA-N","?","25","potentiometric","a1/apparent","?","acidic",8.61
"15570","OC3(=CC=C(C=NC2(=NC=1(NC=NC=1C=N2)))C=C3)","OC1C=CC(C=NC2=NC3NC=NC=3C=N2)=CC=1","InChI=1S/C12H9N5O/c18-9-3-1-8(2-4-9)5-13-12-14-6-10-11(17-12)16-7-15-10/h1-7,18H,(H,14,15,16,17)","HFJGCOOZSZIPQR-UHFFFAOYSA-N","?","25","spectrophotometric","a2/apparent","OH","acidic",8.62
"11419","[Br]C1(=C(O)C=CC(=C1)OC)","COC1C=CC(O)=C(Br)C=1","InChI=1S/C7H7BrO2/c1-10-5-2-3-7(9)6(8)4-5/h2-4,9H,1H3","LTMSUXSPKZRMAB-UHFFFAOYSA-N","?","29","mean from 2","a1/apparent","?","acidic",8.62
"11885","SCC[NH+](CCC)CCC","CCCN(CCS)CCC","InChI=1S/C8H19NS/c1-3-5-9(6-4-2)7-8-10/h10H,3-8H2,1-2H3","YYXYWIASFOLDSO-UHFFFAOYSA-N","?","17","potentiometric","b/apparent","?","acidic",8.62
"16166","S(=O)(=O)(NC1(=CC=C(C)C=C1))C2(=CC=CC=C2)","CC1C=CC(=CC=1)NS(=O)(=O)C1C=CC=CC=1","InChI=1S/C13H13NO2S/c1-11-7-9-12(10-8-11)14-17(15,16)13-5-3-2-4-6-13/h2-10,14H,1H3","UOPLDEWGEPWRMH-UHFFFAOYSA-N","?","23","mean from 5","a1/apparent","NH","acidic",8.63
"16067","O=C(OC1(=CC=CC=C1))C2(=C(O)C=CC=C2C)","CC1=CC=CC(O)=C1C(=O)OC1C=CC=CC=1","InChI=1S/C14H12O3/c1-10-6-5-9-12(15)13(10)14(16)17-11-7-3-2-4-8-11/h2-9,15H,1H3","KCFDOJXAIIQDEP-UHFFFAOYSA-N","?","30","spectrophotometric","a1/apparent","?","acidic",8.63
"13563","S(=O)(=O)(N)C1(=CC=C([N+](=O)[O-])C=C1)","NS(=O)(=O)C1C=CC(=CC=1)[N+]([O-])=O","InChI=1S/C6H6N2O4S/c7-13(11,12)6-3-1-5(2-4-6)8(9)10/h1-4H,(H2,7,11,12)","QWKKYJLAUWFPDB-UHFFFAOYSA-N","?","25","potentiometric","a1/thermodynamic","SO2NH-H","acidic",8.63
"10959","ClC=1(C=2(C(C(O)=CC=1)=CC=CC=2))","OC1=CC=C(Cl)C2=CC=CC=C21","InChI=1S/C10H7ClO/c11-9-5-6-10(12)8-4-2-1-3-7(8)9/h1-6,12H","LVSPDZAGCBEQAV-UHFFFAOYSA-N","?","25","spectrophotometric","a/apparent","?","acidic",8.64
"13725","OC3(=C1(C(C=2(C=CC=CC1=2))=CC=C3))","OC1C=CC=C2C=1C1C=CC=CC=12","InChI=1S/C12H8O/c13-11-7-3-6-10-8-4-1-2-5-9(8)12(10)11/h1-7,13H","IBEBNOABFSWZBU-UHFFFAOYSA-N","?","26","spectrophotometric","a1/apparent","?","acidic",8.64
"13289","O=C1(N(C(=O)C=2(N(C)C=NC=2(N1)))C)","CN1C(=O)NC2N=CN(C)C=2C1=O","InChI=1S/C7H8N4O2/c1-10-3-8-5-4(10)6(12)11(2)7(13)9-5/h3H,1-2H3,(H,9,13)","QUNWUDVFRNGTCO-UHFFFAOYSA-N","?","18","mean from 4","a2/apparent","?","acidic",8.65
"15763","S(=O)(=O)(NC1(=CC=CC=C1))C2(=CC=C(OC)C=C2)","COC1C=CC(=CC=1)S(=O)(=O)NC1C=CC=CC=1","InChI=1S/C13H13NO3S/c1-17-12-7-9-13(10-8-12)18(15,16)14-11-5-3-2-4-6-11/h2-10,14H,1H3","GXQBXHZUPPDPLY-UHFFFAOYSA-N","?","20","spectrophotometric","a/apparent","?","acidic",8.66
"17017","S(=O)(=O)(C1(=NC=CN1))CC2(=CC=CC=C2)","O=S(=O)(CC1C=CC=CC=1)C1NC=CN=1","InChI=1S/C10H10N2O2S/c13-15(14,10-11-6-7-12-10)8-9-4-2-1-3-5-9/h1-7H,8H2,(H,11,12)","DHHHAOSHUUFEST-UHFFFAOYSA-N","?","23","spectrophotometric","a1/apparent","NH","acidic",8.67
"14796","[Br]C6(=CC=C([P+](C1(=CC=CC=C1))(C2(=CC=CC=C2))C4(C3(=C(C=CC=C3)C5(=C4C=CC=C5))))C=C6)","BrC1C=CC(=CC=1)[P+](C1C2C=CC=CC=2C2C=CC=CC=21)(C1C=CC=CC=1)C1C=CC=CC=1","InChI=1S/C31H23BrP/c32-23-19-21-26(22-20-23)33(24-11-3-1-4-12-24,25-13-5-2-6-14-25)31-29-17-9-7-15-27(29)28-16-8-10-18-30(28)31/h1-22,31H/q+1","CMOXFBWDVXGXMM-UHFFFAOYSA-N","?","25","spectrophotometric","a1/apparent","?","acidic",8.67
"16400","O=[N+]([O-])C3(=CC=C(C[N+]2(=CC=C(C(=O)CC1(=CC=CC=C1))C=C2))C=C3)","[O-][N+](=O)C1C=CC(C[N+]2C=CC(=CC=2)C(O)=CC2C=CC=CC=2)=CC=1","InChI=1S/C20H16N2O3/c23-20(14-16-4-2-1-3-5-16)18-10-12-21(13-11-18)15-17-6-8-19(9-7-17)22(24)25/h1-14H,15H2/p+1","GFZPEERMFVXAAK-UHFFFAOYSA-O","?","25","spectrophotometric","a1/apparent","?","acidic",8.68
"11360","O=C(NCCC[NH+](C)C)C=NO","CN(C)CCCNC(=O)CN=O","InChI=1S/C7H15N3O2/c1-10(2)5-3-4-8-7(11)6-9-12/h3-6H2,1-2H3,(H,8,11)","AJMUVBXGJMTEAK-UHFFFAOYSA-N","?","25","mean from 2","a1/apparent","?","acidic",8.68
"10779","O=[N+]([O-])C1(=C(OC)C=CC(=C1)O)","COC1C=CC(O)=CC=1[N+]([O-])=O","InChI=1S/C7H7NO4/c1-12-7-3-2-5(9)4-6(7)8(10)11/h2-4,9H,1H3","AADXAMFLYDYIFS-UHFFFAOYSA-N","?","20","spectrophotometric","a/apparent","?","acidic",8.68
"12398","O=[N+]([O-])C2(=CC=1(C(=O)NC(C=1C=C2)=O))","[O-][N+](=O)C1=CC2=C(C=C1)C(=O)NC2=O","InChI=1S/C8H4N2O4/c11-7-5-2-1-4(10(13)14)3-6(5)8(12)9-7/h1-3H,(H,9,11,12)","ANYWGXDASKQYAD-UHFFFAOYSA-N","?","25",,"a1/thermodynamic","NH","acidic",8.68
"13957","OC=1(C=2(C(C=NC=1)=CC=CC=2))","OC1=CN=CC2=CC=CC=C21","InChI=1S/C9H7NO/c11-9-6-10-5-7-3-1-2-4-8(7)9/h1-6,11H","DXTUTXYCHFWRQC-UHFFFAOYSA-N","?","20","potentiometric","a2/apparent","?","acidic",8.68
"10529","O=C(C1(=CC=CC=C1))CC(=O)C","CC(=O)C=C(O)C1C=CC=CC=1","InChI=1S/C10H10O2/c1-8(11)7-10(12)9-5-3-2-4-6-9/h2-7,12H,1H3","MPRZBJONKJDMJV-UHFFFAOYSA-N","?","24","mean from 5","a/apparent","?","acidic",8.69
"13278","O=C2(C1(=C(O)C=CC=C1C(=O)C=C2))","OC1C=CC=C2C=1C(=O)C=CC2=O","InChI=1S/C10H6O3/c11-7-4-5-9(13)10-6(7)2-1-3-8(10)12/h1-5,12H","KQPYUDDGWXQXHS-UHFFFAOYSA-N","?",,,"a/apparent","?","acidic",8.7
"16502","S1(C(=NC=C1)NP(=O)(OCC(F)(F)F)C2(=CC=C(N)C=C2))","NC1C=CC(=CC=1)P(=O)(NC1=NC=CS1)OCC(F)(F)F","InChI=1S/C11H11F3N3O2PS/c12-11(13,14)7-19-20(18,17-10-16-5-6-21-10)9-3-1-8(15)2-4-9/h1-6H,7,15H2,(H,16,17,18)","ZSWNYIIEGKDWIG-UHFFFAOYSA-N","?",,"potentiometric","a/apparent","?","acidic",8.7
"15446","S1(C(=NC=C1)NP(=O)(OCC)C2(=CC=C([N+](=O)[O-])C=C2))","CCOP(=O)(NC1=NC=CS1)C1C=CC(=CC=1)[N+]([O-])=O","InChI=1S/C11H12N3O4PS/c1-2-18-19(17,13-11-12-7-8-20-11)10-5-3-9(4-6-10)14(15)16/h3-8H,2H2,1H3,(H,12,13,17)","DHDLKTMHQQFLGD-UHFFFAOYSA-N","?",,"potentiometric","a/apparent","?","acidic",8.7
"15415","O=C(NCC1([NH+](CCC1)CC))C2(=C(OC)C=CC=C2O)","CCN1CCCC1CNC(=O)C1=C(O)C=CC=C1OC","InChI=1S/C15H22N2O3/c1-3-17-9-5-6-11(17)10-16-15(19)14-12(18)7-4-8-13(14)20-2/h4,7-8,11,18H,3,5-6,9-10H2,1-2H3,(H,16,19)","MVWKVVFFVMXULU-UHFFFAOYSA-N","?","25","potentiometric","a1/apparent","OH","acidic",8.7