"Molecule name","OriginalSmiles","Canonical_QSARr","InChI_Code_QSARr","InChI Key_QSARr","Salt_Solvent (Concatenate)","temp","method","type","group","basicOrAcidic","pKa"
"15154","O=[N+]([O-])C2(=CC=C(C1(=CC=C(O)C=C1))C=C2)","[O-][N+](=O)C1C=CC(=CC=1)C1C=CC(O)=CC=1","InChI=1S/C12H9NO3/c14-12-7-3-10(4-8-12)9-1-5-11(6-2-9)13(15)16/h1-8,14H","ZNDJDQOECGBUNK-UHFFFAOYSA-N","?","22","mean from 2","a/apparent","?","acidic",9.01
"16327","O=[N+]([O-])C3(=CC1(=C(C=2(C=CC(=CC=2(C1))O))C=C3))","[O-][N+](=O)C1=CC2CC3C=C(O)C=CC=3C=2C=C1","InChI=1S/C13H9NO3/c15-11-2-4-13-9(7-11)5-8-6-10(14(16)17)1-3-12(8)13/h1-4,6-7,15H,5H2","VFTOHJFKIJLYKN-UHFFFAOYSA-N","?","22","mean from 2","a/apparent","?","acidic",9.01
"16675","O=C(NCCCCCCCCCC[NH+](C)C)C=NO","CN(C)CCCCCCCCCCNC(=O)CN=O","InChI=1S/C14H29N3O2/c1-17(2)12-10-8-6-4-3-5-7-9-11-15-14(18)13-16-19/h3-13H2,1-2H3,(H,15,18)","KQILMNNPFLSVIB-UHFFFAOYSA-N","?","25","potentiometric","a1/apparent","?","acidic",9.02
"10039","IC1(=CC(O)=CC=C1)","OC1C=C(I)C=CC=1","InChI=1S/C6H5IO/c7-5-2-1-3-6(8)4-5/h1-4,8H","FXTKWBZFNQHAAO-UHFFFAOYSA-N","?","25","mean from 2","thermodynamic","?","acidic",9.02
"12408","O=C1(NC(=O)C(N1)CC2(=CC=CC=C2))","OC1NC(=O)N=C1CC1C=CC=CC=1","InChI=1S/C10H10N2O2/c13-9-8(11-10(14)12-9)6-7-4-2-1-3-5-7/h1-5,9,13H,6H2,(H,12,14)","RUZIUFXXYHPRHB-UHFFFAOYSA-N","?","25","potentiometric","a/apparent","?","acidic",9.03
"14493","ClC1(=CC(S(=O)(=O)N)=CC=C1)","NS(=O)(=O)C1C=C(Cl)C=CC=1","InChI=1S/C6H6ClNO2S/c7-5-2-1-3-6(4-5)11(8,9)10/h1-4H,(H2,8,9,10)","WSYQJNPRQUFCGL-UHFFFAOYSA-N","?","25","potentiometric","a1/thermodynamic","SO2NH-H","acidic",9.04
"13855","O=C(N)C1(N2(CCC(C1)CC2))","N=C(O)C1CC2CCN1CC2","InChI=1S/C8H14N2O/c9-8(11)7-5-6-1-3-10(7)4-2-6/h6-7H,1-5H2,(H2,9,11)","OZCJTNLELXWUTQ-UHFFFAOYSA-N","?","25",,"a1/apparent","?","acidic",9.04
"16107","S(=O)(=O)(NC1(=CC=C(N)C=C1))C2(=CC=CC=C2)","NC1C=CC(=CC=1)NS(=O)(=O)C1C=CC=CC=1","InChI=1S/C12H12N2O2S/c13-10-6-8-11(9-7-10)14-17(15,16)12-4-2-1-3-5-12/h1-9,14H,13H2","UGLIOSUKEZPTCF-UHFFFAOYSA-N","?","20","potentiometric","a/apparent","?","acidic",9.05
"10667","O=C(C=1(NN=C(C=1)C(=O)C))CC","CC=C(O)C1=CC(=NN1)C(=C)O","InChI=1S/C8H10N2O2/c1-3-8(12)7-4-6(5(2)11)9-10-7/h3-4,11-12H,2H2,1H3,(H,9,10)","VLPHMZYSBUBQFN-UHFFFAOYSA-N","?",,"spectrophotometric","a/apparent","?","acidic",9.05
"10878","O=[N+]([O-])C=CC1(=CC(O)=CC=C1)","[O-][N+](=O)C=CC1C=CC=C(O)C=1","InChI=1S/C8H7NO3/c10-8-3-1-2-7(6-8)4-5-9(11)12/h1-6,10H","DHTXBJQMDPODIB-UHFFFAOYSA-N","?","25","mean from 2","a/apparent","?","acidic",9.05
"10593","O=C(OCC)C1(=CC(O)=CC=C1)","CCOC(=O)C1C=CC=C(O)C=1","InChI=1S/C9H10O3/c1-2-12-9(11)7-4-3-5-8(10)6-7/h3-6,10H,2H2,1H3","MWSMNBYIEBRXAL-UHFFFAOYSA-N","?","25","spectrophotometric","a1/apparent","?","acidic",9.05
"17563","O=C(NO)C","CC(O)N=O","InChI=1S/C2H5NO2/c1-2(4)3-5/h2,4H,1H3","BIEIYDMFILPDDF-UHFFFAOYSA-N","?","24","mean from 8","a1/apparent","NHOH","acidic",9.07
"10440","O=[N+]([O-])C(CO)CO","[O-][N+](=O)C(CO)CO","InChI=1S/C3H7NO4/c5-1-3(2-6)4(7)8/h3,5-6H,1-2H2","YTIXGBHAPNMOKU-UHFFFAOYSA-N","?","25","spectrophotometric","a2/apparent","CH","acidic",9.07
"11841","O=C(CC(=O)C)CC(C)C","CC(C)C=C(O)CC(=C)O","InChI=1S/C8H14O2/c1-6(2)4-8(10)5-7(3)9/h4,6,9-10H,3,5H2,1-2H3","ATKGBKABROSMCS-UHFFFAOYSA-N","?","24","mean from 2","a1/apparent","?","acidic",9.07
"15504","O=C1(C3(=C(OC(=C1)C2(=CC=CC=C2))C=CC(=C3)O))","OC1=CC2C(=O)C=C(OC=2C=C1)C1C=CC=CC=1","InChI=1S/C15H10O3/c16-11-6-7-14-12(8-11)13(17)9-15(18-14)10-4-2-1-3-5-10/h1-9,16H","GPZYYYGYCRFPBU-UHFFFAOYSA-N","?","23","spectrophotometric","a1/apparent","H+","acidic",9.09
"11421","[Br]C1(=C(OC)C=CC(=C1)O)","COC1C=CC(O)=CC=1Br","InChI=1S/C7H7BrO2/c1-10-7-3-2-5(9)4-6(7)8/h2-4,9H,1H3","NOJOUQQJSGRBMN-UHFFFAOYSA-N","?","29","mean from 2","a1/apparent","?","acidic",9.09
"15412","OC2(=CC(=C(N=NC1(=C(C=C(C)C=C1C)C))C(=C2)C)C)","CC1C=C(C)C(N=NC2C(C)=CC(O)=CC=2C)=C(C)C=1","InChI=1S/C17H20N2O/c1-10-6-11(2)16(12(3)7-10)18-19-17-13(4)8-15(20)9-14(17)5/h6-9,20H,1-5H3","NKHRIMFKALYXTJ-UHFFFAOYSA-N","?","25","spectrophotometric","a/apparent","?","acidic",9.1
"10009","OC=1(C(O)=CCC=1C)","CC1CC=C(O)C=1O","InChI=1S/C6H8O2/c1-4-2-3-5(7)6(4)8/h3,7-8H,2H2,1H3","NTDHIBNPPBGCPS-UHFFFAOYSA-N","?","30","potentiometric","a1/apparent","OH","acidic",9.11
"14760","O=C(N(C3(=CC=C(N=NC2(=CC=1(OCCOCCOCCOCCOCCOC=1C=C2)))C=C3))CCCC)C4(=CC=C(O)C=C4)","CCCCN(C(=O)C1C=CC(O)=CC=1)C1C=CC(=CC=1)N=NC1=CC2OCCOCCOCCOCCOCCOC=2C=C1","InChI=1S/C33H41N3O8/c1-2-3-14-36(33(38)26-4-11-30(37)12-5-26)29-9-6-27(7-10-29)34-35-28-8-13-31-32(25-28)44-24-22-42-20-18-40-16-15-39-17-19-41-21-23-43-31/h4-13,25,37H,2-3,14-24H2,1H3","OIWGNSNXGFWYQR-UHFFFAOYSA-N","?","30","spectrophotometric","a1/apparent","O-H","acidic",9.12
"17828","O=C1(NC(=O)CN1)","OC1C=NC(=O)N1","InChI=1S/C3H4N2O2/c6-2-1-4-3(7)5-2/h1-2,6H,(H,5,7)","ZTPUQIVXIYJZAL-UHFFFAOYSA-N","?","22","mean from 4","apparent","?","acidic",9.12
"11400","OB(O)CC1(=CC=CC=C1)","OB(O)CC1C=CC=CC=1","InChI=1S/C7H9BO2/c9-8(10)6-7-4-2-1-3-5-7/h1-5,9-10H,6H2","HBWDWGMBZIFBQE-UHFFFAOYSA-N","?","25","potentiometric","a/apparent","?","acidic",9.12
"11372","O=C(C1(=CC(O)=CC=C1))C","C=C(O)C1=CC(O)=CC=C1","InChI=1S/C8H8O2/c1-6(9)7-3-2-4-8(10)5-7/h2-5,9-10H,1H2","HDUSCJODMXIVSV-UHFFFAOYSA-N","?","25","mean from 3","apparent","?","acidic",9.12
"10715","O=C(NCCN)C1(=CC=CC=C1)","NCCNC(=O)C1C=CC=CC=1","InChI=1S/C9H12N2O/c10-6-7-11-9(12)8-4-2-1-3-5-8/h1-5H,6-7,10H2,(H,11,12)","NHWKHNPRDPAXLM-UHFFFAOYSA-N","?","25","potentiometric","a/apparent","?","acidic",9.13
"15153","O=[N+]([O-])C2(=CC(C1(=CC=C(O)C=C1))=CC=C2)","[O-][N+](=O)C1=CC(=CC=C1)C1C=CC(O)=CC=1","InChI=1S/C12H9NO3/c14-12-6-4-9(5-7-12)10-2-1-3-11(8-10)13(15)16/h1-8,14H","UNJAJDWFIYUSJV-UHFFFAOYSA-N","?","26","spectrophotometric","a/apparent","?","acidic",9.14
"16104","O=C(C1(=CC=CC=C1))C2(=NNC(=C2)C(=O)CC)","CC=C(O)C1=CC(=NN1)C(=O)C1C=CC=CC=1","InChI=1S/C13H12N2O2/c1-2-12(16)10-8-11(15-14-10)13(17)9-6-4-3-5-7-9/h2-8,16H,1H3,(H,14,15)","GUKZJSOTVKYIAE-UHFFFAOYSA-N","?",,"spectrophotometric","a/apparent","?","acidic",9.14
"17764","O=C1(C(=O)CCC1)","OC1=CCCC1=O","InChI=1S/C5H6O2/c6-4-2-1-3-5(4)7/h2,6H,1,3H2","WOPKYMRPOKFYNI-UHFFFAOYSA-N","?","20","potentiometric","a/apparent","?","acidic",9.14
"17141","O(C3(=C2(C1(=C(O)C=CC=C1C2=CC=C3))))C","COC1C=CC=C2C=1C1=C(O)C=CC=C21","InChI=1S/C13H10O2/c1-15-11-7-3-5-9-8-4-2-6-10(14)12(8)13(9)11/h2-7,14H,1H3","DGPXDJSSXGATFP-UHFFFAOYSA-N","?","26","spectrophotometric","a1/apparent","?","acidic",9.15
"14823","S(=O)(=O)(NC2(=CC=C(C1(=C(C(=NC(=C1C(=O)OCC)C)C)C(=O)OCC))C=C2))C3(=CC=C(N)C=C3)","CC1=NC(C)=C(C(=C1C(=O)OCC)C1C=CC(=CC=1)NS(=O)(=O)C1C=CC(N)=CC=1)C(=O)OCC","InChI=1S/C25H27N3O6S/c1-5-33-24(29)21-15(3)27-16(4)22(25(30)34-6-2)23(21)17-7-11-19(12-8-17)28-35(31,32)20-13-9-18(26)10-14-20/h7-14,28H,5-6,26H2,1-4H3","AMPODBVCCDZBGW-UHFFFAOYSA-N","?",,"potentiometric","a/apparent","?","acidic",9.15
"11592","O=C([N+]1(=CC=C(N)C=C1))C","C=C(O)[N+]1=CC=C(N)C=C1","InChI=1S/C7H8N2O/c1-6(10)9-4-2-7(8)3-5-9/h2-5,8,10H,1H2/p+1","QHBQWFSFSJRFOT-UHFFFAOYSA-O","?","25",,"a1/apparent","?","acidic",9.15
"13586","O=C(C(=NO)CN1(CCOCC1))C","C=C(O)C(CN1CCOCC1)N=O","InChI=1S/C8H14N2O3/c1-7(11)8(9-12)6-10-2-4-13-5-3-10/h8,11H,1-6H2","BBQYGWJXXFMPDW-UHFFFAOYSA-N","?",,"potentiometric","a2/apparent","?","acidic",9.15
"13948","OC2(=CC=1(C(=CN=CC=1)C=C2))","OC1=CC2=CC=NC=C2C=C1","InChI=1S/C9H7NO/c11-9-2-1-8-6-10-4-3-7(8)5-9/h1-6,11H","GPVPDRHTRGTSIH-UHFFFAOYSA-N","?","20","potentiometric","a2/apparent","?","acidic",9.15
"15988","OC3(=C1(C(C=2(C(O)=CC=CC1=2))=CC=C3))","OC1C=CC=C2C=1C1C=CC=C(O)C=12","InChI=1S/C12H8O2/c13-9-5-1-3-7-11(9)8-4-2-6-10(14)12(7)8/h1-6,13-14H","VOEFKGGHEJTXRU-UHFFFAOYSA-N","?, ?","26","spectrophotometric","a1/apparent","?, ?","acidic",9.16
"13794","O(C1(=NC=NC2(=C1NC=N2)))C","COC1=NC=NC2N=CNC=21","InChI=1S/C6H6N4O/c1-11-6-4-5(8-2-7-4)9-3-10-6/h2-3H,1H3,(H,7,8,9,10)","GOILPRCCOREWQE-UHFFFAOYSA-N","?","20","potentiometric","a2/apparent","?","acidic",9.16
"15422","O=[N+]([O-])C1(=C(O)C(=CC(=C1)C)CC2(=C(C=CC(=C2)O)C))","CC1=CC(=C(O)C(CC2C=C(O)C=CC=2C)=C1)[N+]([O-])=O","InChI=1S/C15H15NO4/c1-9-5-12(15(18)14(6-9)16(19)20)7-11-8-13(17)4-3-10(11)2/h3-6,8,17-18H,7H2,1-2H3","NUEINOUBCZBAAG-UHFFFAOYSA-N","?, ?","25","spectrophotometric","a1/apparent","?, ?","acidic",9.165
"11735","OB(O)C1(=CC=C(N)C=C1)","NC1=CC=C(C=C1)B(O)O","InChI=1S/C6H8BNO2/c8-6-3-1-5(2-4-6)7(9)10/h1-4,9-10H,8H2","MKPDAJWEBQRQCO-UHFFFAOYSA-N","?","25","potentiometric","apparent","B(OH)2","acidic",9.17
"12934","O=C1(NC(=O)C(N1)(C)C)","CC1(C)NC(=O)NC1=O","InChI=1S/C5H8N2O2/c1-5(2)3(8)6-4(9)7-5/h1-2H3,(H2,6,7,8,9)","YIROYDNZEPTFOL-UHFFFAOYSA-N","?","23.7","potentiometric","a/apparent","?","acidic",9.19
"13564","S(=O)(=O)(N)C1(=CC([N+](=O)[O-])=CC=C1)","NS(=O)(=O)C1=CC(=CC=C1)[N+]([O-])=O","InChI=1S/C6H6N2O4S/c7-13(11,12)6-3-1-2-5(4-6)8(9)10/h1-4H,(H2,7,11,12)","TXTQURPQLVHJRE-UHFFFAOYSA-N","?","20","potentiometric","a/apparent","?","acidic",9.19
"11776","OC1(=C(C=CC=C1)CC[NH3+])","NCCC1=CC=CC=C1O","InChI=1S/C8H11NO/c9-6-5-7-3-1-2-4-8(7)10/h1-4,10H,5-6,9H2","FMEVAQARAVDUNY-UHFFFAOYSA-N","?","25","spectrophotometric","a1/apparent","OH","acidic",9.19
"16194","S1(C(=NC=C1)NP(=O)(OC)C2(=CC=C(N)C=C2))","COP(=O)(NC1=NC=CS1)C1C=CC(N)=CC=1","InChI=1S/C10H12N3O2PS/c1-15-16(14,13-10-12-6-7-17-10)9-4-2-8(11)3-5-9/h2-7H,11H2,1H3,(H,12,13,14)","ADQCBFBZYMRZNR-UHFFFAOYSA-N","?",,"potentiometric","a/apparent","?","acidic",9.2
"10968","[Br]C2(=CC=1(C(=CC(O)=CC=1)C=C2))","OC1C=C2C=CC(Br)=CC2=CC=1","InChI=1S/C10H7BrO/c11-9-3-1-8-6-10(12)4-2-7(8)5-9/h1-6,12H","YLDFTMJPQJXGSS-UHFFFAOYSA-N","?","25","spectrophotometric","a1/apparent","O-H","acidic",9.2
"15014","N1(=C(N=CC3(=C1N=C(C2(=CC=CC=C2))N3))N)","NC1=NC2N=C(NC=2C=N1)C1C=CC=CC=1","InChI=1S/C11H9N5/c12-11-13-6-8-10(16-11)15-9(14-8)7-4-2-1-3-5-7/h1-6H,(H3,12,13,14,15,16)","JKDGDCLMBYSMPO-UHFFFAOYSA-N","?","20","potentiometric","a2/apparent","?","acidic",9.2
"16597","OC=1(NN=C(C=1CCCCCCC)C2(=CC=CC=C2))","CCCCCCCC1=C(O)NN=C1C1C=CC=CC=1","InChI=1S/C16H22N2O/c1-2-3-4-5-9-12-14-15(17-18-16(14)19)13-10-7-6-8-11-13/h6-8,10-11H,2-5,9,12H2,1H3,(H2,17,18,19)","LGPDUMJLNROXPX-UHFFFAOYSA-N","?",,"potentiometric","a/apparent","?","acidic",9.2
"15486","O=C(C1(=CC=CC=C1))C(=NNC2(=C(C(=O)C)C=CC=C2))C(=O)C3(=CC=CC=C3)","C=C(O)C1C=CC=CC=1N=NC(C(=O)C1C=CC=CC=1)=C(O)C1C=CC=CC=1","InChI=1S/C23H18N2O3/c1-16(26)19-14-8-9-15-20(19)24-25-21(22(27)17-10-4-2-5-11-17)23(28)18-12-6-3-7-13-18/h2-15,26-27H,1H2","NNRFFLONBMRFDU-UHFFFAOYSA-N","?","30","spectrophotometric","a1/apparent","?","acidic",9.2
"13791","O(C2(=NC=1(N=CNC=1C=N2)))C","COC1=NC2N=CNC=2C=N1","InChI=1S/C6H6N4O/c1-11-6-7-2-4-5(10-6)9-3-8-4/h2-3H,1H3,(H,7,8,9,10)","HKCXKNGHGLCFHK-UHFFFAOYSA-N","?","20","potentiometric","a2/apparent","?","acidic",9.2
"11955","N2(=C(C=1(NC=NC=1N=C2))C)","CC1=NC=NC2N=CNC=21","InChI=1S/C6H6N4/c1-4-5-6(9-2-7-4)10-3-8-5/h2-3H,1H3,(H,7,8,9,10)","SYMHUEFSSMBHJA-UHFFFAOYSA-N","?","20","mean from 2","a2/apparent","?","acidic",9.21
"12060","S2(C1(=C(C=CC(=C1)O)N=C2))","OC1=CC2SC=NC=2C=C1","InChI=1S/C7H5NOS/c9-5-1-2-6-7(3-5)10-4-8-6/h1-4,9H","ORIIXCOYEOIFSN-UHFFFAOYSA-N","?","20","potentiometric","a1/thermodynamic","OH","acidic",9.21
"10965","IC2(=CC=1(C(=CC(O)=CC=1)C=C2))","OC1C=C2C=CC(I)=CC2=CC=1","InChI=1S/C10H7IO/c11-9-3-1-8-6-10(12)4-2-7(8)5-9/h1-6,12H","KWIKEUOFWNWERV-UHFFFAOYSA-N","?","25","spectrophotometric","a1/apparent","?","acidic",9.23
"11733","OB(O)C1(=C(N)C=CC=C1)","NC1C=CC=CC=1B(O)O","InChI=1S/C6H8BNO2/c8-6-4-2-1-3-5(6)7(9)10/h1-4,9-10H,8H2","DIRRKLFMHQUJCM-UHFFFAOYSA-N","?","25","potentiometric","apparent","B(OH)2","acidic",9.23
"10859","OC1(=CC(=CC=C1)CC[NH+](C)C)","CN(C)CCC1C=CC=C(O)C=1","InChI=1S/C10H15NO/c1-11(2)7-6-9-4-3-5-10(12)8-9/h3-5,8,12H,6-7H2,1-2H3","DZZZXJVECUJDRB-UHFFFAOYSA-N","?","25","spectrophotometric","a1/apparent","OH","acidic",9.24
"16188","ClC1(=C(S(=O)(=O)N)C=C2(S(=O)(=O)NCNC2(=C1)))","NS(=O)(=O)C1C=C2C(=CC=1Cl)NCNS2(=O)=O","InChI=1S/C7H8ClN3O4S2/c8-4-1-5-7(2-6(4)16(9,12)13)17(14,15)11-3-10-5/h1-2,10-11H,3H2,(H2,9,12,13)","JZUFKLXOESDKRF-UHFFFAOYSA-N","?, ?","25","potentiometric","a1/apparent","?, ?","acidic",9.245000000000001
"14123","S=C(OCCCC)NC(=O)C","C/C(/O)=N\C(=S)OCCCC","InChI=1S/C7H13NO2S/c1-3-4-5-10-7(11)8-6(2)9/h3-5H2,1-2H3,(H,8,9,11)","XOICROKFDISHJI-UHFFFAOYSA-N","?","20","potentiometric","a1/apparent","?","acidic",9.25
"13353","S=C2(N(C1(CCCCC1)(C(N2)=O))C)","CN1C(=S)NC(=O)C21CCCCC2","InChI=1S/C9H14N2OS/c1-11-8(13)10-7(12)9(11)5-3-2-4-6-9/h2-6H2,1H3,(H,10,12,13)","OANRQLIZUJBHSS-UHFFFAOYSA-N","?","18","spectrophotometric","a/apparent","?","acidic",9.25
"10805","O=C(C1(=CC=CC=C1))C(=NO)C","CC(N=O)C(=O)C1C=CC=CC=1","InChI=1S/C9H9NO2/c1-7(10-12)9(11)8-5-3-2-4-6-8/h2-7H,1H3","IMHHVLKOGFPUTE-UHFFFAOYSA-N","?","20","potentiometric","a1/apparent","?","acidic",9.25
"14980","OC3(=C2(NC1(=C(C=CC=C1)N(C2=CC=C3)C)))","CN1C2=CC=CC(O)=C2NC2C=CC=CC1=2","InChI=1S/C13H12N2O/c1-15-10-6-3-2-5-9(10)14-13-11(15)7-4-8-12(13)16/h2-8,14,16H,1H3","ZWVBCRHOFNVAHM-UHFFFAOYSA-N","?","30","potentiometric","a/apparent","?","acidic",9.26
"15736","[Br]C2(=CC(C(=S)NC1(=CC(Cl)=C(Cl)C=C1))=CC=C2)","S=C(NC1=CC(Cl)=C(Cl)C=C1)C1C=C(Br)C=CC=1","InChI=1S/C13H8BrCl2NS/c14-9-3-1-2-8(6-9)13(18)17-10-4-5-11(15)12(16)7-10/h1-7H,(H,17,18)","LTLLZTNIBIFVQI-UHFFFAOYSA-N","?",,"spectrophotometric","a1/apparent","?","acidic",9.26
"15308","O=[N+]([O-])C3(=CC=2(C(=O)C(=C1(NC=CC=C1))C(C=2C=C3)=O))","[O-][N+](=O)C1C=C2C(=CC=1)C(=O)C(C1C=CC=CN=1)C2=O","InChI=1S/C14H8N2O4/c17-13-9-5-4-8(16(19)20)7-10(9)14(18)12(13)11-3-1-2-6-15-11/h1-7,12H","GNVGVRAYXSDDFH-UHFFFAOYSA-N","?",,"spectrophotometric","a/apparent","?","acidic",9.26
"13785","O=C1(NC=NC2(=C1C=NN2C))","CN1N=CC2C(=O)NC=NC1=2","InChI=1S/C6H6N4O/c1-10-5-4(2-9-10)6(11)8-3-7-5/h2-3H,1H3,(H,7,8,11)","CDJQIJFWTUEUFF-UHFFFAOYSA-N","?","20","spectrophotometric","a/apparent","?","acidic",9.26
"13287","O=C1(N(C(=O)C=2(C=NNC=2(N1C)))C)","CN1C(=O)C2C=NNC=2N(C)C1=O","InChI=1S/C7H8N4O2/c1-10-5-4(3-8-9-5)6(12)11(2)7(10)13/h3H,1-2H3,(H,8,9)","UOZYUNMWPMJYJQ-UHFFFAOYSA-N","?","20",,"a/apparent","?","acidic",9.26
"14445","O=C(NO)CC1(=CC=CC=C1)","OC(CC1C=CC=CC=1)N=O","InChI=1S/C8H9NO2/c10-8(9-11)6-7-4-2-1-3-5-7/h1-5,8,10H,6H2","WZMIFQGLVCOJLP-UHFFFAOYSA-N","?","20","mean from 2","a1/thermodynamic","?","acidic",9.26
"17146","OC2(=CC1(=C3(C(=CC=C1C=C2)C=CC=C3)))","OC1=CC2=C3C=CC=CC3=CC=C2C=C1","InChI=1S/C14H10O/c15-12-8-7-11-6-5-10-3-1-2-4-13(10)14(11)9-12/h1-9,15H","NGPOABOEXMDQBT-UHFFFAOYSA-N","?","20","spectrophotometric","a1/apparent","?","acidic",9.28
"12767","OC1(=C(O)C=CC=C1C)","CC1=CC=CC(O)=C1O","InChI=1S/C7H8O2/c1-5-3-2-4-6(8)7(5)9/h2-4,8-9H,1H3","PGSWEKYNAOWQDF-UHFFFAOYSA-N","?","25","potentiometric","a/apparent","?","acidic",9.28
"11479","O(C1(=C(O)C(O)=CC=C1))C","COC1C=CC=C(O)C=1O","InChI=1S/C7H8O3/c1-10-6-4-2-3-5(8)7(6)9/h2-4,8-9H,1H3","LPYUENQFPVNPHY-UHFFFAOYSA-N","?","25","potentiometric","a/apparent","?","acidic",9.28
"10044","[Br]C1(=CC=C(O)C=C1)","OC1=CC=C(Br)C=C1","InChI=1S/C6H5BrO/c7-5-1-3-6(8)4-2-5/h1-4,8H","GZFGOTFRPZRKDS-UHFFFAOYSA-N","?","25","mean from 7","a1/apparent","OH","acidic",9.29
"10041","ClC1(=CC=C(O)C=C1)","OC1=CC=C(Cl)C=C1","InChI=1S/C6H5ClO/c7-5-1-3-6(8)4-2-5/h1-4,8H","WXNZTHHGJRFXKQ-UHFFFAOYSA-N","?","24","mean from 14","a1/apparent","?","acidic",9.29
"14883","FC(F)(F)C(=NO)C1(=CC(N(C)C)=CC=C1)","CN(C)C1C=C(C=CC=1)C(N=O)C(F)(F)F","InChI=1S/C10H11F3N2O/c1-15(2)8-5-3-4-7(6-8)9(14-16)10(11,12)13/h3-6,9H,1-2H3","OMDVOTYVMOOGAZ-UHFFFAOYSA-N","?","25","spectrophotometric","a1/apparent","?","acidic",9.3
"16945","O=C(C1(=C(O)C=CC=C1))C2(=CC=CC=C2)","OC1C=CC=CC=1C(=O)C1C=CC=CC=1","InChI=1S/C13H10O2/c14-12-9-5-4-8-11(12)13(15)10-6-2-1-3-7-10/h1-9,14H","HJIAMFHSAAEUKR-UHFFFAOYSA-N","?",,,"a1/apparent","OH","acidic",9.3
"17705","O=C(C(=NO)C)C","CC(N=O)C(=C)O","InChI=1S/C4H7NO2/c1-3(5-7)4(2)6/h3,6H,2H2,1H3","WZRCOROJCBOGRS-UHFFFAOYSA-N","?","25","mean from 2","a1/apparent","NOH","acidic",9.3
"17040","O=C(NO)C1(C(C(=O)NO)C2(CCC1O2))","OC(N=O)C1C(C2CCC1O2)C(=O)NO","InChI=1S/C8H12N2O5/c11-7(9-13)5-3-1-2-4(15-3)6(5)8(12)10-14/h3-7,11,14H,1-2H2,(H,10,12)","FPGARCVUWKVDAY-UHFFFAOYSA-N","?","25","potentiometric","a/apparent","?","acidic",9.3
"15103","O=C1(N(C=CC(N1)=O)C2(OC(CO)C(C2)O))","OC1CC(OC1CO)N1C=CC(=O)NC1=O","InChI=1S/C9H12N2O5/c12-4-6-5(13)3-8(16-6)11-2-1-7(14)10-9(11)15/h1-2,5-6,8,12-13H,3-4H2,(H,10,14,15)","MXHRCPNRJAMMIM-UHFFFAOYSA-N","?",,"spectrophotometric","a1/apparent","?","acidic",9.3
"11165","OC=2(C1(=NC=CC=C1C(O)=CC=2))","OC1=CC=C(O)C2=CC=CN=C12","InChI=1S/C9H7NO2/c11-7-3-4-8(12)9-6(7)2-1-5-10-9/h1-5,11-12H","FBLZWWDWBRMCSE-UHFFFAOYSA-N","?",,"potentiometric","a2/apparent","?","acidic",9.3
"10962","ClC2(=CC=1(C(=CC(O)=CC=1)C=C2))","OC1C=C2C=CC(Cl)=CC2=CC=1","InChI=1S/C10H7ClO/c11-9-3-1-8-6-10(12)4-2-7(8)5-9/h1-6,12H","CNLYNLSYCPWZQY-UHFFFAOYSA-N","?","25","spectrophotometric","a1/apparent","?","acidic",9.31
"13483","O=C(C(C1(=CC=CC=C1))C(=O)C)C","C=C(O)C(C1C=CC=CC=1)C(=C)O","InChI=1S/C11H12O2/c1-8(12)11(9(2)13)10-6-4-3-5-7-10/h3-7,11-13H,1-2H2","JHJAKYNUEADUFW-UHFFFAOYSA-N","?","20",,"a/apparent","?","acidic",9.32
"10043","IC1(=CC=C(O)C=C1)","OC1=CC=C(I)C=C1","InChI=1S/C6H5IO/c7-5-1-3-6(8)4-2-5/h1-4,8H","VSMDINRNYYEDRN-UHFFFAOYSA-N","?","25","mean from 3","a1/apparent","?","acidic",9.32
"14281","O(C1(=CC=C(B(O)O)C=C1))C","COC1C=CC(=CC=1)B(O)O","InChI=1S/C7H9BO3/c1-11-7-4-2-6(3-5-7)8(9)10/h2-5,9-10H,1H3","VOAAEKKFGLPLLU-UHFFFAOYSA-N","?","25","potentiometric","a/apparent","?","acidic",9.32
"17612","SCCC(=O)OC","COC(O)=CCS","InChI=1S/C4H8O2S/c1-6-4(5)2-3-7/h2,5,7H,3H2,1H3","OMXVXUAGMXOLTP-UHFFFAOYSA-N","?","25","spectrophotometric","a1/apparent","?","acidic",9.33
"11913","S=C(OCCC)NC(=O)C","C/C(/O)=N\C(=S)OCCC","InChI=1S/C6H11NO2S/c1-3-4-9-6(10)7-5(2)8/h3-4H2,1-2H3,(H,7,8,10)","DTSNFEUQHBVBST-UHFFFAOYSA-N","?","20","potentiometric","a1/apparent","?","acidic",9.34
"14496","S(=O)(=O)(N)C1(=CC=C(F)C=C1)","NS(=O)(=O)C1C=CC(F)=CC=1","InChI=1S/C6H6FNO2S/c7-5-1-3-6(4-2-5)11(8,9)10/h1-4H,(H2,8,9,10)","LFLSATHZMYYIAQ-UHFFFAOYSA-N","?","25","potentiometric","a1/thermodynamic","SO2NH-H","acidic",9.34
"10614","O=C(OCC)C1(=CC=C(O)C=C1)","CCOC(=O)C1C=CC(O)=CC=1","InChI=1S/C9H10O3/c1-2-12-9(11)7-3-5-8(10)6-4-7/h3-6,10H,2H2,1H3","NUVBSKCKDOMJSU-UHFFFAOYSA-N","?","25","spectrophotometric","apparent","?","acidic",9.34
"11186","OC=1(C(N)=CC2(=CC=CC=C2(C=1)))","NC1=CC2=CC=CC=C2C=C1O","InChI=1S/C10H9NO/c11-9-5-7-3-1-2-4-8(7)6-10(9)12/h1-6,12H,11H2","ZHVPTERSBUMMHK-UHFFFAOYSA-N","?","24","mean from 2","a1/apparent","O-H","acidic",9.35
"12014","OC2(=CC=1(NN=CC=1C=C2))","OC1=CC2NN=CC=2C=C1","InChI=1S/C7H6N2O/c10-6-2-1-5-4-8-9-7(5)3-6/h1-4,10H,(H,8,9)","NUYZVDBIVNOTSC-UHFFFAOYSA-N","?","25","potentiometric","a/apparent","?","acidic",9.35
"10357","O=C(CC(=O)C)CC","CC=C(O)CC(=C)O","InChI=1S/C6H10O2/c1-3-6(8)4-5(2)7/h3,7-8H,2,4H2,1H3","SSUOWCBLHHOYNB-UHFFFAOYSA-N","?","20",,"a1/apparent","?","acidic",9.36
"11960","N2(=C1(N=C(C)NC1=CN=C2))","CC1NC2=CN=CN=C2N=1","InChI=1S/C6H6N4/c1-4-9-5-2-7-3-8-6(5)10-4/h2-3H,1H3,(H,7,8,9,10)","UZQYFLWZKIMYKS-UHFFFAOYSA-N","?","20","potentiometric","a2/apparent","?","acidic",9.37
"16291","OC3(=CC2(=C(C1(=CC=CC=C1))C=CC=C2C=C3))","OC1=CC2=C(C=CC=C2C=C1)C1C=CC=CC=1","InChI=1S/C16H12O/c17-14-10-9-13-7-4-8-15(16(13)11-14)12-5-2-1-3-6-12/h1-11,17H","CCSHLQBRNAHTIE-UHFFFAOYSA-N","?","20","spectrophotometric","a1/apparent","?","acidic",9.38
"11975","O=C1(NC=NC2(=C1C=NN2))","O=C1NC=NC2NN=CC=21","InChI=1S/C5H4N4O/c10-5-3-1-8-9-4(3)6-2-7-5/h1-2H,(H2,6,7,8,9,10)","OFCNXPDARWKPPY-UHFFFAOYSA-N","?","20","spectrophotometric","a1/apparent","?","acidic",9.38
"10444","O=C(C(=NO)CC)C","CCC(N=O)C(=C)O","InChI=1S/C5H9NO2/c1-3-5(6-8)4(2)7/h5,7H,2-3H2,1H3","NZDQORWYNZNYGJ-UHFFFAOYSA-N","?","25","potentiometric","a/apparent","?","acidic",9.38
"14449","O=C(NC1(=CC(O)=CC=C1))C","C/C(/O)=N\C1C=C(O)C=CC=1","InChI=1S/C8H9NO2/c1-6(10)9-7-3-2-4-8(11)5-7/h2-5,11H,1H3,(H,9,10)","QLNWXBAGRTUKKI-UHFFFAOYSA-N","?","25","spectrophotometric","a1/apparent","?","acidic",9.38