"Molecule name","OriginalSmiles","Canonical_QSARr","InChI_Code_QSARr","InChI Key_QSARr","Salt_Solvent (Concatenate)","temp","method","type","group","basicOrAcidic","pKa"
"10896","S(=O)(=O)(N)C1(=CC(OC)=CC=C1)","COC1C=C(C=CC=1)S(N)(=O)=O","InChI=1S/C7H9NO3S/c1-11-6-3-2-4-7(5-6)12(8,9)10/h2-5H,1H3,(H2,8,9,10)","VBKIEQKVSHDVGH-UHFFFAOYSA-N","?","25","potentiometric","a1/thermodynamic","SO2NH-H","acidic",9.39
"16152","O=C(C1(=CC=CC=C1))C(=NO)C2(=CC=CC=C2)","O=C(C(N=O)C1C=CC=CC=1)C1C=CC=CC=1","InChI=1S/C14H11NO2/c16-14(12-9-5-2-6-10-12)13(15-17)11-7-3-1-4-8-11/h1-10,13H","VURSCVRKPQWDTM-UHFFFAOYSA-N","?, ?","20","potentiometric","a1/apparent","?, ?","acidic",9.4
"17476","O=[N+]([O-])CCO","[O-][N+](=O)CCO","InChI=1S/C2H5NO3/c4-2-1-3(5)6/h4H,1-2H2","KIPMDPDAFINLIV-UHFFFAOYSA-N","?","25","spectrophotometric","a3/apparent","CH","acidic",9.4
"12823","ClC1(=C(C=C(O)C=C1)C)","CC1C=C(O)C=CC=1Cl","InChI=1S/C7H7ClO/c1-5-4-6(9)2-3-7(5)8/h2-4,9H,1H3","CFKMVGJGLGKFKI-UHFFFAOYSA-N","?","20","spectrophotometric","a1/apparent","H-O","acidic",9.4
"12129","OC1(=C(C(N=[N+]=[N-])=NCC)C=CC=C1)","CC/N=C(\N=[N+]=N)/C1=CC=CC=C1O","InChI=1S/C9H10N4O/c1-2-11-9(12-13-10)7-5-3-4-6-8(7)14/h3-6,10H,2H2,1H3/p+1","VDVJAKYWYCFWJV-UHFFFAOYSA-O","?","25","spectrophotometric","a2/apparent","O-H","acidic",9.4
"10958","OC2(=CC=1(C(=CC=CC=1C)C=C2))","CC1C=CC=C2C=CC(O)=CC2=1","InChI=1S/C11H10O/c1-8-3-2-4-9-5-6-10(12)7-11(8)9/h2-7,12H,1H3","IIMWYPQPDPTIIA-UHFFFAOYSA-N","?","20","spectrophotometric","a1/apparent","?","acidic",9.42
"10005","SCC1(=CC=CC=C1)","SCC1C=CC=CC=1","InChI=1S/C7H8S/c8-6-7-4-2-1-3-5-7/h1-5,8H,6H2","UENWRTRMUIOCKN-UHFFFAOYSA-N","?","25","spectrophotometric","a1/apparent","S-H","acidic",9.43
"15772","S(=O)(=O)(NC1(=NC(N)=CC=N1))C2(=CC=C(N)C=C2)","NC1C=CC(=CC=1)S(=O)(=O)NC1=NC(N)=CC=N1","InChI=1S/C10H11N5O2S/c11-7-1-3-8(4-2-7)18(16,17)15-10-13-6-5-9(12)14-10/h1-6H,11H2,(H3,12,13,14,15)","NZJLTOYOJWOIFZ-UHFFFAOYSA-N","?",,"potentiometric","a/apparent","?","acidic",9.44
"13745","OC=1(C=2(C(C=CC=1)=CC=CC=2))","OC1=CC=CC2=CC=CC=C21","InChI=1S/C10H8O/c11-10-7-3-5-8-4-1-2-6-9(8)10/h1-7,11H","KJCVRFUGPWSIIH-UHFFFAOYSA-N","?","19","mean from 5","a1/apparent","OH","acidic",9.44
"14821","P(=O)(OC2(=C(C1(=C(OC(CCCC(CCCC(CCCC(C)C)C)C)(C)CC1)C(=C2C)C))C))(O)[O-]","CC(C)CCCC(C)CCCC(C)CCCC1(C)CCC2C(O1)=C(C)C(C)=C(OP(O)(O)=O)C=2C","InChI=1S/C29H51O5P/c1-20(2)12-9-13-21(3)14-10-15-22(4)16-11-18-29(8)19-17-26-25(7)27(34-35(30,31)32)23(5)24(6)28(26)33-29/h20-22H,9-19H2,1-8H3,(H2,30,31,32)","JUIUXBHZFNHITF-UHFFFAOYSA-N","?",,"spectrophotometric","apparent","?","acidic",9.44
"15831","O=[N+]([O-])C4(=CC=C(C(=O)C[N+]=3(C=2(C(=C1(C(C=CC=C1)=CC=2))C=CC=3)))C=C4)","[O-][N+](=O)C1C=CC(=CC=1)C(O)=C[N+]1C=CC=C2C=1C=CC1C=CC=CC=12","InChI=1S/C21H14N2O3/c24-21(16-7-10-17(11-8-16)23(25)26)14-22-13-3-6-19-18-5-2-1-4-15(18)9-12-20(19)22/h1-14H/p+1","UZBVMKWBFAMNJK-UHFFFAOYSA-O","?","20","potentiometric","a1/apparent","?","acidic",9.45
"12403","S(=O)(=O)([O-])C1(=C(O)C=CC2(=C1NN=C2))","OC1C=CC2C=NNC=2C=1S(O)(=O)=O","InChI=1S/C7H6N2O4S/c10-5-2-1-4-3-8-9-6(4)7(5)14(11,12)13/h1-3,10H,(H,8,9)(H,11,12,13)","RUPWXGZBOSSYOB-UHFFFAOYSA-N","?","25","potentiometric","a/apparent","?","acidic",9.45
"15279","N(CC1(=CC=C(C)C=C1))CCCCCCCCCCC","CC1C=CC(CNCCCCCCCCCCC)=CC=1","InChI=1S/C19H33N/c1-3-4-5-6-7-8-9-10-11-16-20-17-19-14-12-18(2)13-15-19/h12-15,20H,3-11,16-17H2,1-2H3","OYYUQQGCTXUWCV-UHFFFAOYSA-N","?",,"potentiometric","a1/apparent","amino","acidic",9.46
"17448","O=C(NO)CC","CCC(O)N=O","InChI=1S/C3H7NO2/c1-2-3(5)4-6/h3,5H,2H2,1H3","UKRHWLSRWGVKFK-UHFFFAOYSA-N","?","20","potentiometric","a/apparent","?","acidic",9.46
"17707","O=C(N)C=C(O)C","CC(O)=CC(N)=O","InChI=1S/C4H7NO2/c1-3(6)2-4(5)7/h2,6H,1H3,(H2,5,7)","BIUIEMOYCZHHND-UHFFFAOYSA-N","?","25","spectrophotometric","a1/apparent","?","acidic",9.46
"15104","O=C1(NCC(=O)NC1CC2(=CC=C(O)C=C2))","OC1C=CC(CC2NC(O)C=NC=2O)=CC=1","InChI=1S/C11H12N2O3/c14-8-3-1-7(2-4-8)5-9-11(16)12-6-10(15)13-9/h1-4,6,10,13-16H,5H2","PTEFXAQWGUQYOC-UHFFFAOYSA-N","?","18","potentiometric","a/apparent","?","acidic",9.47
"17179","OC2(=CC=1(NC=3(C(=NC=CC=3(C=1C=C2))C)))","CC1=NC=CC2=C1NC1C=C(O)C=CC2=1","InChI=1S/C12H10N2O/c1-7-12-10(4-5-13-7)9-3-2-8(15)6-11(9)14-12/h2-6,14-15H,1H3","SATMZMMKDDTOSQ-UHFFFAOYSA-N","?","21","spectrophotometric","a2/apparent","?","acidic",9.47
"13263","OC2(=CC=C(C1(=CC=CC=C1))C=C2)","OC1C=CC(=CC=1)C1C=CC=CC=1","InChI=1S/C12H10O/c13-12-8-6-11(7-9-12)10-4-2-1-3-5-10/h1-9,13H","YXVFYQXJAXKLAK-UHFFFAOYSA-N","?","25","mean from 2","a1/apparent","?","acidic",9.47
"12829","S(C1(=CC(O)=CC=C1))C","CSC1C=CC=C(O)C=1","InChI=1S/C7H8OS/c1-9-7-4-2-3-6(8)5-7/h2-5,8H,1H3","LCNLSFRRONIQFX-UHFFFAOYSA-N","?","25","mean from 2","a/apparent","?","acidic",9.47
"17706","O=C(NO)CCC","CCCC(O)N=O","InChI=1S/C4H9NO2/c1-2-3-4(6)5-7/h4,6H,2-3H2,1H3","XBHJBMGFCLAOIY-UHFFFAOYSA-N","?","20","potentiometric","a/apparent","?","acidic",9.48
"10368","O=C(OC)C=C(O)C","CC(O)=CC(=O)OC","InChI=1S/C5H8O3/c1-4(6)3-5(7)8-2/h3,6H,1-2H3","DHVOJYDALVUWPZ-UHFFFAOYSA-N","?","25","spectrophotometric","a1/apparent","?","acidic",9.48
"11157","S=C1(OC2(C(O)C(CO)OC2(N1)))","OC1C2OC(=S)NC2OC1CO","InChI=1S/C6H9NO4S/c8-1-2-3(9)4-5(10-2)7-6(12)11-4/h2-5,8-9H,1H2,(H,7,12)","YYLRCLKRHHPCAC-UHFFFAOYSA-N","?, ?","20","potentiometric","a/apparent","?, ?","acidic",9.48
"11178","ClC2(=CC=1(C(=O)NC(C=1C=C2)=O))","O=C1NC(=O)C2C=C(Cl)C=CC1=2","InChI=1S/C8H4ClNO2/c9-4-1-2-5-6(3-4)8(12)10-7(5)11/h1-3H,(H,10,11,12)","BGJNRQSGJHVURK-UHFFFAOYSA-N","?","25","spectrophotometric","a1/thermodynamic","NH","acidic",9.48
"14934","S(=O)(=O)(NCCC(=[NH2+])N)C1(=CC=C(C)C=C1)","CC1=CC=C(C=C1)S(=O)(=O)NCCC(N)=N","InChI=1S/C10H15N3O2S/c1-8-2-4-9(5-3-8)16(14,15)13-7-6-10(11)12/h2-5,13H,6-7H2,1H3,(H3,11,12)","XINKDJFSJHJPAN-UHFFFAOYSA-N","?","24.9","potentiometric","a1/apparent","tosylamide","acidic",9.49
"14554","O=C([O-])C1(=NC(=C(O)C=C1)C)","CC1=NC(=CC=C1O)C(O)=O","InChI=1S/C7H7NO3/c1-4-6(9)3-2-5(8-4)7(10)11/h2-3,9H,1H3,(H,10,11)","KJGJZYTUFVQTNN-UHFFFAOYSA-N","?",,"potentiometric","a2/apparent","?","acidic",9.49
"15869","OC3(=CC=C(C=NC2(=CC=C(C1(=CC=C(N)C=C1))C=C2))C=C3)","NC1C=CC(=CC=1)C1C=CC(=CC=1)N=CC1C=CC(O)=CC=1","InChI=1S/C19H16N2O/c20-17-7-3-15(4-8-17)16-5-9-18(10-6-16)21-13-14-1-11-19(22)12-2-14/h1-13,22H,20H2","PDVSNXIRLRXOOK-UHFFFAOYSA-N","?","25","spectrophotometric","a3/apparent","?","acidic",9.5
"12863","O=[N+]([O-])C1(=NNC=C1N)","NC1=CNN=C1[N+]([O-])=O","InChI=1S/C3H4N4O2/c4-2-1-5-6-3(2)7(8)9/h1H,4H2,(H,5,6)","XPZVDIIFPQUKAP-UHFFFAOYSA-N","?","20","spectrophotometric","a1/apparent","N-H","acidic",9.5
"10157","OC1(=C(N=CC=C1)N)","NC1N=CC=CC=1O","InChI=1S/C5H6N2O/c6-5-4(8)2-1-3-7-5/h1-3,8H,(H2,6,7)","BMTSZVZQNMNPCT-UHFFFAOYSA-N","?","20",,"a2/apparent","?","acidic",9.5
"12652","O=C(C(=NO)C(C)C)C","CC(C)C(N=O)C(=C)O","InChI=1S/C6H11NO2/c1-4(2)6(7-9)5(3)8/h4,6,8H,3H2,1-2H3","SMCODJFUZVQBOO-UHFFFAOYSA-N","?","25","potentiometric","a/apparent","?","acidic",9.5
"14494","ClC1(=CC=C(S(=O)(=O)N)C=C1)","NS(=O)(=O)C1C=CC(Cl)=CC=1","InChI=1S/C6H6ClNO2S/c7-5-1-3-6(4-2-5)11(8,9)10/h1-4H,(H2,8,9,10)","HHHDJHHNEURCNV-UHFFFAOYSA-N","?","20","mean from 2","a1/apparent","SO2NH-H","acidic",9.5
"11674","SCCNC1(=CC=CC=C1)","SCCNC1C=CC=CC=1","InChI=1S/C8H11NS/c10-7-6-9-8-4-2-1-3-5-8/h1-5,9-10H,6-7H2","GSZFZXVMYGIDGE-UHFFFAOYSA-N","?","24","mean from 2","b/apparent","?","acidic",9.5
"14448","O=C(NC1(=CC=C(O)C=C1))C","C/C(/O)=N\C1=CC=C(O)C=C1","InChI=1S/C8H9NO2/c1-6(10)9-7-2-4-8(11)5-3-7/h2-5,11H,1H3,(H,9,10)","RZVAJINKPMORJF-UHFFFAOYSA-N","?","20","spectrophotometric","a1/apparent","H-O","acidic",9.5
"13464","S(C1(=NC=NN1))CC2(=CC=CC=C2)","C(SC1NN=CN=1)C1C=CC=CC=1","InChI=1S/C9H9N3S/c1-2-4-8(5-3-1)6-13-9-10-7-11-12-9/h1-5,7H,6H2,(H,10,11,12)","IQQYSQRJFHUASD-UHFFFAOYSA-N","?","23","spectrophotometric","a1/apparent","NH","acidic",9.5
"15735","ClC1(=C(Cl)C=CC(=C1)NC(=S)C2(=CC=C(Cl)C=C2))","S=C(NC1=CC(Cl)=C(Cl)C=C1)C1C=CC(Cl)=CC=1","InChI=1S/C13H8Cl3NS/c14-9-3-1-8(2-4-9)13(18)17-10-5-6-11(15)12(16)7-10/h1-7H,(H,17,18)","YTXOWKYHXFDMER-UHFFFAOYSA-N","?",,"spectrophotometric","a1/apparent","?","acidic",9.51
"12594","O=C(OCC)C=C(O)C","CC(O)=CC(=O)OCC","InChI=1S/C6H10O3/c1-3-9-6(8)4-5(2)7/h4,7H,3H2,1-2H3","ROBJRQHNPKJRFH-UHFFFAOYSA-N","?","25","spectrophotometric","a1/apparent","?","acidic",9.51
"12779","O(C1(=CC(O)=CC=C1))C","COC1C=CC=C(O)C=1","InChI=1S/C7H8O2/c1-9-7-4-2-3-6(8)5-7/h2-5,8H,1H3","ASHGTJPOSUFTGB-UHFFFAOYSA-N","?","25","mean from 7","a1/apparent","ArOH","acidic",9.51
"10957","OC2(=CC=1(C(=CC=C(C=1)C)C=C2))","CC1C=C2C=C(O)C=CC2=CC=1","InChI=1S/C11H10O/c1-8-2-3-9-4-5-11(12)7-10(9)6-8/h2-7,12H,1H3","DNCGBNFOSLTQQB-UHFFFAOYSA-N","?","25","spectrophotometric","a1/apparent","?","acidic",9.52
"12338","OC2(=CC=1(C(=CC=CC=1C(C)C)C=C2))","CC(C)C1C=CC=C2C=CC(O)=CC2=1","InChI=1S/C13H14O/c1-9(2)12-5-3-4-10-6-7-11(14)8-13(10)12/h3-9,14H,1-2H3","HALUFMAHPNDSTF-UHFFFAOYSA-N","?","20","spectrophotometric","a1/apparent","?","acidic",9.52
"13323","ONC=1(C=2(C([N+]([O-])=CC=1)=CC=CC=2))","[O-][N+]1=CC=C(NO)C2=CC=CC=C12","InChI=1S/C9H8N2O2/c12-10-8-5-6-11(13)9-4-2-1-3-7(8)9/h1-6,10,12H","XGXCMUKDRZHNCO-UHFFFAOYSA-N","?","25","mean from 2","a2/apparent","N-O","acidic",9.52
"12047","O=C1(NC(=O)C2(C1CCC2))","OC1=NC(=O)C2CCCC12","InChI=1S/C7H9NO2/c9-6-4-2-1-3-5(4)7(10)8-6/h4-5H,1-3H2,(H,8,9,10)","QCWDCTDYSDJKTP-UHFFFAOYSA-N","?","20","potentiometric","a/apparent","?","acidic",9.53
"12227","FC1(=CC(=C(O)C=C1)CN(CC)CC)","CCN(CC1C=C(F)C=CC=1O)CC","InChI=1S/C11H16FNO/c1-3-13(4-2)8-9-7-10(12)5-6-11(9)14/h5-7,14H,3-4,8H2,1-2H3","SZUAYIXJGDMIQY-UHFFFAOYSA-N","?, ?","25","mean from 3","a1/apparent","?, ?","acidic",9.535
"13261","OC2(=CC=1(C(=CC=CC=1CC)C=C2))","CCC1C=CC=C2C=CC(O)=CC2=1","InChI=1S/C12H12O/c1-2-9-4-3-5-10-6-7-11(13)8-12(9)10/h3-8,13H,2H2,1H3","HMOJHNGIVUHXGS-UHFFFAOYSA-N","?","20","spectrophotometric","a1/apparent","?","acidic",9.54
"16462","O=[N+]([O-])C2(=CC(NC(=O)CC(=O)C1(=CC=CC=C1))=CC=C2)","[O-][N+](=O)C1=CC(=CC=C1)/N=C(/O)\CC(=O)C1C=CC=CC=1","InChI=1S/C15H12N2O4/c18-14(11-5-2-1-3-6-11)10-15(19)16-12-7-4-8-13(9-12)17(20)21/h1-9H,10H2,(H,16,19)","UUAFEFWRZSBGTL-UHFFFAOYSA-N","?","30",,"a1/apparent","?","acidic",9.54
"16463","O=[N+]([O-])C2(=C(NC(=O)CC(=O)C1(=CC=CC=C1))C=CC=C2)","[O-][N+](=O)C1=CC=CC=C1/N=C(/O)\CC(=O)C1C=CC=CC=1","InChI=1S/C15H12N2O4/c18-14(11-6-2-1-3-7-11)10-15(19)16-12-8-4-5-9-13(12)17(20)21/h1-9H,10H2,(H,16,19)","SOUUCXNSEWCPQS-UHFFFAOYSA-N","?","30",,"a1/apparent","?","acidic",9.54
"15741","O=C(NC1(=CC=CC=C1))CC(=O)C2(=CC=CC=C2)","O/C(/CC(=O)C1C=CC=CC=1)=N/C1C=CC=CC=1","InChI=1S/C15H13NO2/c17-14(12-7-3-1-4-8-12)11-15(18)16-13-9-5-2-6-10-13/h1-10H,11H2,(H,16,18)","XRZDIHADHZSFBB-UHFFFAOYSA-N","?","30",,"a1/apparent","?","acidic",9.54
"17821","SCC=1(N=CNC=1)","SCC1=CNC=N1","InChI=1S/C4H6N2S/c7-2-4-1-5-3-6-4/h1,3,7H,2H2,(H,5,6)","CUJKQNHBJRVCET-UHFFFAOYSA-N","?","25","potentiometric","a2/apparent","?","acidic",9.54
"12716","N2(=C1(NN=CC1=CN=C2))","C1N=C2NN=CC2=CN=1","InChI=1S/C5H4N4/c1-4-2-8-9-5(4)7-3-6-1/h1-3H,(H,6,7,8,9)","QUKPALAWEPMWOS-UHFFFAOYSA-N","?","20","spectrophotometric","a2/apparent","?","acidic",9.54
"15451","O2(CC1(=NNC(=N1)COCCOCCOCCOCC2))","C1OCCOCCOCCOCCOCC2NN=C1N=2","InChI=1S/C12H21N3O5/c1-3-17-5-7-19-9-11-13-12(15-14-11)10-20-8-6-18-4-2-16-1/h1-10H2,(H,13,14,15)","KGZKDAWIHUVEKM-UHFFFAOYSA-N","?","25","potentiometric","b1/apparent","N-H","acidic",9.55
"14819","[P+](C1(=CC(=CC=C1)C))(C2(=CC(=CC=C2)C))(C3(=CC(=CC=C3)C))C5(C4(=C(C=CC=C4)C6(=C5C=CC=C6)))","CC1C=C(C=CC=1)[P+](C1C2C=CC=CC=2C2C=CC=CC=21)(C1=CC(C)=CC=C1)C1=CC(C)=CC=C1","InChI=1S/C34H30P/c1-24-11-8-14-27(21-24)35(28-15-9-12-25(2)22-28,29-16-10-13-26(3)23-29)34-32-19-6-4-17-30(32)31-18-5-7-20-33(31)34/h4-23,34H,1-3H3/q+1","YQIYYKWHXQPIBG-UHFFFAOYSA-N","?","25","spectrophotometric","a1/apparent","?","acidic",9.55
"10729","O=C([N+]1(=CC=C(N(C)C)C=C1))C","CN(C)C1C=C[N+](=CC=1)C(=C)O","InChI=1S/C9H12N2O/c1-8(12)11-6-4-9(5-7-11)10(2)3/h4-7H,1H2,2-3H3/p+1","ZFYBEWSQZWANKJ-UHFFFAOYSA-O","?","25",,"a1/apparent","?","acidic",9.55
"13990","N2(=C1(N=C(NC)NC1=CN=C2))","CNC1NC2=CN=CN=C2N=1","InChI=1S/C6H7N5/c1-7-6-10-4-2-8-3-9-5(4)11-6/h2-3H,1H3,(H2,7,8,9,10,11)","DNBMRENNZIQFFS-UHFFFAOYSA-N","?","20","potentiometric","a2/apparent","?","acidic",9.56
"12654","O=C(NO)CCCCC","CCCCCC(O)N=O","InChI=1S/C6H13NO2/c1-2-3-4-5-6(8)7-9/h6,8H,2-5H2,1H3","ZDIXLZGSEKGAFI-UHFFFAOYSA-N","?","23","mean from 5","a1/apparent","H(1+)","acidic",9.58
"13683","OC1(=CC=C(CC[NH2+]C(C)C)C=C1)","CC(C)NCCC1C=CC(O)=CC=1","InChI=1S/C11H17NO/c1-9(2)12-8-7-10-3-5-11(13)6-4-10/h3-6,9,12-13H,7-8H2,1-2H3","LUVHMKBYLSDWQF-UHFFFAOYSA-N","?","20","mean from 2","a1/apparent","?","acidic",9.59
"13262","OC2(=CC(C1(=CC=CC=C1))=CC=C2)","OC1=CC(=CC=C1)C1C=CC=CC=1","InChI=1S/C12H10O/c13-12-8-4-7-11(9-12)10-5-2-1-3-6-10/h1-9,13H","UBXYXCRCOKCZIT-UHFFFAOYSA-N","?","23","mean from 3","a/apparent","?","acidic",9.59
"10446","O=C(NO)C(C)(C)C","CC(C)(C)C(=O)NO","InChI=1S/C5H11NO2/c1-5(2,3)4(7)6-8/h8H,1-3H3,(H,6,7)","ATDOYFPHCIRHKH-UHFFFAOYSA-N","?","25",,"a1/apparent","?","acidic",9.59
"13743","OC2(=CC=1(C(=CC=CC=1)C=C2))","OC1=CC2=CC=CC=C2C=C1","InChI=1S/C10H8O/c11-10-6-5-8-3-1-2-4-9(8)7-10/h1-7,11H","JWAZRIHNYRIHIV-UHFFFAOYSA-N","?","21","mean from 7","a1/apparent","OH","acidic",9.6
"16999","O=C1(N(C(=O)C(N1)=CC2(=CC=CC=C2))C)","CN1C(=O)N=C(CC2C=CC=CC=2)C1=O","InChI=1S/C11H10N2O2/c1-13-10(14)9(12-11(13)15)7-8-5-3-2-4-6-8/h2-6H,7H2,1H3","DDGLDBSIPYJDSO-UHFFFAOYSA-N","?","25","potentiometric","a/apparent","?","acidic",9.6
"10008","O=C1(C(=O)CCC1C)","CC1CCC(=O)C=1O","InChI=1S/C6H8O2/c1-4-2-3-5(7)6(4)8/h8H,2-3H2,1H3","CFAKWWQIUFSQFU-UHFFFAOYSA-N","?","20","potentiometric","a/apparent","?","acidic",9.6
"12822","ClC1(=CC(=C(O)C=C1)C)","CC1C=C(Cl)C=CC=1O","InChI=1S/C7H7ClO/c1-5-4-6(8)2-3-7(5)9/h2-4,9H,1H3","RHPUJHQBPORFGV-UHFFFAOYSA-N","?","25","spectrophotometric","apparent","?","acidic",9.6
"14233","ClC1(=C(C=C(O)C=C1C)CC)","CC1=CC(O)=CC(CC)=C1Cl","InChI=1S/C9H11ClO/c1-3-7-5-8(11)4-6(2)9(7)10/h4-5,11H,3H2,1-2H3","KOIPGHKKJDOUNZ-UHFFFAOYSA-N","?","25","spectrophotometric","a/apparent","?","acidic",9.6
"17356","SC(CS)CO","OCC(S)CS","InChI=1S/C3H8OS2/c4-1-3(6)2-5/h3-6H,1-2H2","WQABCVAJNWAXTE-UHFFFAOYSA-N","?, ?","30","potentiometric","a1/apparent","?, ?","acidic",9.605
"11895","O=C(NO)CCCCCC","CCCCCCC(O)N=O","InChI=1S/C7H15NO2/c1-2-3-4-5-6-7(9)8-10/h7,9H,2-6H2,1H3","RXNDRMXCVLOOAH-UHFFFAOYSA-N","?","21","mean from 4","a1/apparent","H(1+)","acidic",9.62
"10827","S(=O)(=O)(N)C1(=CC(=C(C)C=C1)C)","CC1C=C(C=CC=1C)S(N)(=O)=O","InChI=1S/C8H11NO2S/c1-6-3-4-8(5-7(6)2)12(9,10)11/h3-5H,1-2H3,(H2,9,10,11)","HSPZFYZBTVVAOC-UHFFFAOYSA-N","?","25","potentiometric","a1/thermodynamic","SO2NH-H","acidic",9.62
"13250","O(C2(=CC=1(C(=CC(O)=CC=1)C=C2)))C","COC1=CC2=CC=C(O)C=C2C=C1","InChI=1S/C11H10O2/c1-13-11-5-3-8-6-10(12)4-2-9(8)7-11/h2-7,12H,1H3","WWPKRXOOVICNJY-UHFFFAOYSA-N","?","25","spectrophotometric","a1/apparent","?","acidic",9.64
"12219","OC1(=CC(=CC=C1)CCC[N+](C)(C)C)","C[N+](C)(C)CCCC1C=C(O)C=CC=1","InChI=1S/C12H19NO/c1-13(2,3)9-5-7-11-6-4-8-12(14)10-11/h4,6,8,10H,5,7,9H2,1-3H3/p+1","HXRAFUHPPAVMQN-UHFFFAOYSA-O","?","25","potentiometric","a1/apparent","?","acidic",9.64
"14820","[P+](C1(=CC=C(C)C=C1))(C2(=CC=C(C)C=C2))(C3(=CC=C(C)C=C3))C5(C4(=C(C=CC=C4)C6(=C5C=CC=C6)))","CC1C=CC(=CC=1)[P+](C1C2C=CC=CC=2C2C=CC=CC=21)(C1C=CC(C)=CC=1)C1C=CC(C)=CC=1","InChI=1S/C34H30P/c1-24-12-18-27(19-13-24)35(28-20-14-25(2)15-21-28,29-22-16-26(3)17-23-29)34-32-10-6-4-8-30(32)31-9-5-7-11-33(31)34/h4-23,34H,1-3H3/q+1","GNAKSINGMVSKIX-UHFFFAOYSA-N","?","25","spectrophotometric","a1/apparent","?","acidic",9.64
"13561","O=[N+]([O-])C1(=C(C=CC(=C1)N)B(O)O)","NC1=CC(=C(C=C1)B(O)O)[N+]([O-])=O","InChI=1S/C6H7BN2O4/c8-4-1-2-5(7(10)11)6(3-4)9(12)13/h1-3,10-11H,8H2","GWANFFQKCNZFII-UHFFFAOYSA-N","?","25","potentiometric","a/apparent","?","acidic",9.64
"17826","S1(C(=[N+](C)C=C1)N)","C[N+]1C=CSC=1N","InChI=1S/C4H6N2S/c1-6-2-3-7-4(6)5/h2-3,5H,1H3/p+1","YGUHKHFHVUKJQH-UHFFFAOYSA-O","?","21","potentiometric","a/apparent","?","acidic",9.65
"13764","S(C1(=NC=NC2(=C1C=NN2)))C","CSC1=NC=NC2NN=CC=21","InChI=1S/C6H6N4S/c1-11-6-4-2-9-10-5(4)7-3-8-6/h2-3H,1H3,(H,7,8,9,10)","BLEJJILOVWBLBZ-UHFFFAOYSA-N","?","20","spectrophotometric","a2/apparent","?","acidic",9.65
"17674","FC(F)C(=O)NN","N/N=C(/O)\C(F)F","InChI=1S/C2H4F2N2O/c3-1(4)2(7)6-5/h1H,5H2,(H,6,7)","QCPHJKOQDCQCIW-UHFFFAOYSA-N","?","25",,"a1/apparent","NH","acidic",9.66
"14268","OC1(=C(C=CC=C1CO)CO)","OC1C(CO)=CC=CC=1CO","InChI=1S/C8H10O3/c9-4-6-2-1-3-7(5-10)8(6)11/h1-3,9-11H,4-5H2","DECTVMOFPJKFOZ-UHFFFAOYSA-N","?","25","spectrophotometric","a/thermodynamic","?","acidic",9.66
"12790","[Br]C1(=C(O)C=CC(=C1)O)","OC1=CC(Br)=C(O)C=C1","InChI=1S/C6H5BrO2/c7-5-3-4(8)1-2-6(5)9/h1-3,8-9H","REFDOIWRJDGBHY-UHFFFAOYSA-N","?, ?","22","spectrophotometric","a1/apparent","?, ?","acidic",9.675
"14910","O=C(C(C(=O)C)CC1(=CC=C(C#N)C=C1))C","C=C(O)C(CC1=CC=C(C=C1)C#N)C(=C)O","InChI=1S/C13H13NO2/c1-9(15)13(10(2)16)7-11-3-5-12(8-14)6-4-11/h3-6,13,15-16H,1-2,7H2","HUTKFHCAWLXEAO-UHFFFAOYSA-N","?","25","spectrophotometric","a1/thermodynamic","?","acidic",9.69
"12140","O=C(C=1(NN=C(C=1)C(=O)C))C(C)(C)C","CC(C)(C)C(=O)C1=CC(=NN1)C(=C)O","InChI=1S/C10H14N2O2/c1-6(13)7-5-8(12-11-7)9(14)10(2,3)4/h5,13H,1H2,2-4H3,(H,11,12)","ZEGZBVIOARGZNV-UHFFFAOYSA-N","?",,"spectrophotometric","a/apparent","?","acidic",9.7
"14645","O=C(C1(=NNC(=C1)C(=O)CC))C(C)(C)C","CC=C(O)C1=CC(=NN1)C(=O)C(C)(C)C","InChI=1S/C11H16N2O2/c1-5-9(14)7-6-8(13-12-7)10(15)11(2,3)4/h5-6,14H,1-4H3,(H,12,13)","XGEIWGLFVZMRCL-UHFFFAOYSA-N","?",,"spectrophotometric","a/apparent","?","acidic",9.7
"14824","S(=O)(=O)(NC2(=CC(C1(=C(C(=NC(=C1C(=O)OCC)C)C)C(=O)OCC))=CC=C2))C3(=CC=C(N)C=C3)","CC1=NC(C)=C(C(=C1C(=O)OCC)C1C=C(C=CC=1)NS(=O)(=O)C1C=CC(N)=CC=1)C(=O)OCC","InChI=1S/C25H27N3O6S/c1-5-33-24(29)21-15(3)27-16(4)22(25(30)34-6-2)23(21)17-8-7-9-19(14-17)28-35(31,32)20-12-10-18(26)11-13-20/h7-14,28H,5-6,26H2,1-4H3","RHNPBAYJAHXSEJ-UHFFFAOYSA-N","?",,"potentiometric","a/apparent","?","acidic",9.7
"10419","S(=O)(=O)(N)CC(=O)N","NS(=O)(=O)CC(=N)O","InChI=1S/C2H6N2O3S/c3-2(5)1-8(4,6)7/h1H2,(H2,3,5)(H2,4,6,7)","GOJKUTTXOKTGTI-UHFFFAOYSA-N","?","25","potentiometric","a1/apparent","?","acidic",9.7
"11016","O=C1(NC([O-])=NC2(=C1NC(C)=N2))","CC1NC2C(=O)NC(O)=NC=2N=1","InChI=1S/C6H6N4O2/c1-2-7-3-4(8-2)9-6(12)10-5(3)11/h1H3,(H3,7,8,9,10,11,12)","RTAPDZBZLSXHQQ-UHFFFAOYSA-N","?","25","spectrophotometric","a2/apparent","?","acidic",9.7
"12775","O(C1(=C(O)C=CC=C1))C","COC1C=CC=CC=1O","InChI=1S/C7H8O2/c1-9-7-5-3-2-4-6(7)8/h2-5,8H,1H3","LHGVFZTZFXWLCP-UHFFFAOYSA-N","?","25","mean from 3","a1/apparent","?","acidic",9.7
"14442","O=C1(NC(=O)C(C1(C)C)(C)C)","CC1(C)C(=O)NC(=O)C1(C)C","InChI=1S/C8H13NO2/c1-7(2)5(10)9-6(11)8(7,3)4/h1-4H3,(H,9,10,11)","XGJPUQFWFRCCFO-UHFFFAOYSA-N","?","20","potentiometric","a/apparent","?","acidic",9.7
"10267","OC1(=C(N)C=CC=C1)","NC1C=CC=CC=1O","InChI=1S/C6H7NO/c7-5-3-1-2-4-6(5)8/h1-4,8H,7H2","CDAWCLOXVUBKRW-UHFFFAOYSA-N","?","23","mean from 7","a2/thermodynamic","O-H","acidic",9.71
"15062","S(=O)(=O)(NC1(=NC=CN1))C2(=CC=C(N)C=C2)","NC1C=CC(=CC=1)S(=O)(=O)NC1NC=CN=1","InChI=1S/C9H10N4O2S/c10-7-1-3-8(4-2-7)16(14,15)13-9-11-5-6-12-9/h1-6H,10H2,(H2,11,12,13)","ZAUMCYWSLMNGTK-UHFFFAOYSA-N","?",,"potentiometric","a/apparent","?","acidic",9.72
"17038","OC2(=CC1(=C(NC=C1CC[NH+](C)C)C=C2))","CN(C)CCC1=CNC2=CC=C(O)C=C12","InChI=1S/C12H16N2O/c1-14(2)6-5-9-8-13-12-4-3-10(15)7-11(9)12/h3-4,7-8,13,15H,5-6H2,1-2H3","VTTONGPRPXSUTJ-UHFFFAOYSA-N","?","21","mean from 2","a1/apparent","OH","acidic",9.73
"12864","O=[N+]([O-])C=1(C(=NNC=1)N)","NC1=NNC=C1[N+]([O-])=O","InChI=1S/C3H4N4O2/c4-3-2(7(8)9)1-5-6-3/h1H,(H3,4,5,6)","JWGYPTNGYXOXPV-UHFFFAOYSA-N","?","20","spectrophotometric","a1/apparent","N-H","acidic",9.73
"11245","N2(=C1(N=C(N(C)C)NC1=CN=C2))","CN(C)C1NC2=CN=CN=C2N=1","InChI=1S/C7H9N5/c1-12(2)7-10-5-3-8-4-9-6(5)11-7/h3-4H,1-2H3,(H,8,9,10,11)","WNLBOWJFJNZYPN-UHFFFAOYSA-N","?","20","potentiometric","a2/apparent","?","acidic",9.73