"Molecule name","OriginalSmiles","Canonical_QSARr","InChI_Code_QSARr","InChI Key_QSARr","Salt_Solvent (Concatenate)","temp","method","type","group","basicOrAcidic","pKa"
"15961","O=C(NCC1([NH+](CCC1)CC))C2(=C(O)C(=CC=C2OC)CC)","COC1C=CC(CC)=C(O)C=1C(=O)NCC1CCCN1CC","InChI=1S/C17H26N2O3/c1-4-12-8-9-14(22-3)15(16(12)20)17(21)18-11-13-7-6-10-19(13)5-2/h8-9,13,20H,4-7,10-11H2,1-3H3,(H,18,21)","YMTZSXGHAFKWEQ-UHFFFAOYSA-N","?","25","potentiometric","a1/apparent","OH","acidic",8.7
"11599","S=C1(NC(=O)C(N1)C(C)C)","CC(C)C1=NC(=S)NC1O","InChI=1S/C6H10N2OS/c1-3(2)4-5(9)8-6(10)7-4/h3,5,9H,1-2H3,(H,8,10)","PGAWRXSJMGEYMD-UHFFFAOYSA-N","?","18","spectrophotometric","a/apparent","?","acidic",8.7
"12825","ClC1(=C(O)C(=CC=C1)C)","CC1=CC=CC(Cl)=C1O","InChI=1S/C7H7ClO/c1-5-3-2-4-6(8)7(5)9/h2-4,9H,1H3","YPNZJHFXFVLXSE-UHFFFAOYSA-N","?","25","spectrophotometric","apparent","?","acidic",8.7
"11771","OC1([N+](CC(C1)(C)C)(C)C)","CC1(C)CC(O)[N+](C)(C)C1","InChI=1S/C8H18NO/c1-8(2)5-7(10)9(3,4)6-8/h7,10H,5-6H2,1-4H3/q+1","VSSDTMVGUNLDJZ-UHFFFAOYSA-N","?","20",,"a1/apparent","OH","acidic",8.7
"15288","S(=O)(C3(=CC(OC)=C(C1(=NC=2(N=NC=CC=2(N1))))C=C3))C","CS(=O)C1=CC(OC)=C(C=C1)C1NC2C=CN=NC=2N=1","InChI=1S/C13H12N4O2S/c1-19-11-7-8(20(2)18)3-4-9(11)12-15-10-5-6-14-17-13(10)16-12/h3-7H,1-2H3,(H,15,16,17)","OGNUMJQMWMMEQO-UHFFFAOYSA-N","?, ?","25","mean from 2","a2/apparent","?, ?","acidic",8.705
"10854","OC1(=C(C=CC=C1)C[N+](C)(C)C)","C[N+](C)(C)CC1C=CC=CC=1O","InChI=1S/C10H15NO/c1-11(2,3)8-9-6-4-5-7-10(9)12/h4-7H,8H2,1-3H3/p+1","DSSBXSXKPWVWNR-UHFFFAOYSA-O","?","25","mean from 2","a1/apparent","?","acidic",8.71
"12985","S=C1(NC(=O)C(N1)(C)C)","CC1(C)NC(=S)NC1=O","InChI=1S/C5H8N2OS/c1-5(2)3(8)6-4(9)7-5/h1-2H3,(H2,6,7,8,9)","QSAASNVWPNBKDI-UHFFFAOYSA-N","?","18","spectrophotometric","a/apparent","?","acidic",8.71
"11684","O=C(NO)C1(=CC=CC=C1)","ONC(=O)C1C=CC=CC=1","InChI=1S/C7H7NO2/c9-7(8-10)6-4-2-1-3-5-6/h1-5,10H,(H,8,9)","VDEUYMSGMPQMIK-UHFFFAOYSA-N","?","22","mean from 3","a1/apparent","?","acidic",8.71
"16731","O1(C(=NC(=C1O)CC2(=CC=CC=C2))C3(=CC=CC=C3))","OC1OC(=NC=1CC1C=CC=CC=1)C1C=CC=CC=1","InChI=1S/C16H13NO2/c18-16-14(11-12-7-3-1-4-8-12)17-15(19-16)13-9-5-2-6-10-13/h1-10,18H,11H2","FCIVAYYGHJIQME-UHFFFAOYSA-N","?","25","spectrophotometric","a1/apparent","?","acidic",8.72
"13239","O=C(NCCC[NH+](CC)C)C=NO","CCN(C)CCCNC(=O)CN=O","InChI=1S/C8H17N3O2/c1-3-11(2)6-4-5-9-8(12)7-10-13/h3-7H2,1-2H3,(H,9,12)","WRLUEOMEGUUJDV-UHFFFAOYSA-N","?","25","potentiometric","a1/apparent","?","acidic",8.72
"15199","O=C(NCCC[NH+](CCC)CCC)C=NO","CCCN(CCC)CCCNC(=O)CN=O","InChI=1S/C11H23N3O2/c1-3-7-14(8-4-2)9-5-6-12-11(15)10-13-16/h3-10H2,1-2H3,(H,12,15)","BPXHMFGSPPTZKU-UHFFFAOYSA-N","?","25","potentiometric","a1/apparent","?","acidic",8.73
"17449","O=C(N(O)C)C","CN(O)C(=C)O","InChI=1S/C3H7NO2/c1-3(5)4(2)6/h5-6H,1H2,2H3","XWZGBVYGMLYLMW-UHFFFAOYSA-N","?","25","mean from 2","a1/apparent","?","acidic",8.73
"13769","S(C1(=NC=NC2(=C1NC=N2)))C","CSC1=NC=NC2N=CNC=21","InChI=1S/C6H6N4S/c1-11-6-4-5(8-2-7-4)9-3-10-6/h2-3H,1H3,(H,7,8,9,10)","UIJIQXGRFSPYQW-UHFFFAOYSA-N","?","20","potentiometric","a2/apparent","?","acidic",8.74
"12788","OB(O)C1(=CC=CC=C1)","OB(O)C1C=CC=CC=1","InChI=1S/C6H7BO2/c8-7(9)6-4-2-1-3-5-6/h1-5,8-9H","HXITXNWTGFUOAU-UHFFFAOYSA-N","?","24","mean from 3","a1/apparent","?","acidic",8.74
"10851","OC1(=CC=C(C[N+](C)(C)C)C=C1)","C[N+](C)(C)CC1C=CC(O)=CC=1","InChI=1S/C10H15NO/c1-11(2,3)8-9-4-6-10(12)7-5-9/h4-7H,8H2,1-3H3/p+1","DRCGIMLIHAOUCP-UHFFFAOYSA-O","?","25","potentiometric","a1/apparent","?","acidic",8.75
"11424","S(=O)(C1(=CC(O)=CC=C1))C","CS(=O)C1C=CC=C(O)C=1","InChI=1S/C7H8O2S/c1-10(9)7-4-2-3-6(8)5-7/h2-5,8H,1H3","NYEJOIGPFQJXFY-UHFFFAOYSA-N","?","25","potentiometric","a/apparent","?","acidic",8.75
"11222","O1(C(O)C=2(C(O)=C(C)N=CC=2(C1)))","CC1N=CC2COC(O)C=2C=1O","InChI=1S/C8H9NO3/c1-4-7(10)6-5(2-9-4)3-12-8(6)11/h2,8,10-11H,3H2,1H3","MUYYNBSOIUTQPC-UHFFFAOYSA-N","?","20","spectrophotometric","a1/apparent","?","acidic",8.75
"11081","OC=2(C1(=NC=NC(=C1C=CC=2)C))","CC1N=CN=C2C(O)=CC=CC2=1","InChI=1S/C9H8N2O/c1-6-7-3-2-4-8(12)9(7)11-5-10-6/h2-5,12H,1H3","RSHKEEMIDCYLTC-UHFFFAOYSA-N","?","20","potentiometric","a2/apparent","?","acidic",8.75
"14428","O=[N+]([O-])C1(=C(O)C=CC(=C1)O)","[O-][N+](=O)C1C=C(O)C=CC=1O","InChI=1S/C6H5NO4/c8-4-1-2-6(9)5(3-4)7(10)11/h1-3,8-9H","VIIYYMZOGKODQG-UHFFFAOYSA-N","?, ?","25","mean from 2","a1/apparent","?, ?","acidic",8.765
"16247","S=C(N(CC)CC)NC(=O)C1(=CC=C(C)C=C1)","CC1C=CC(=CC=1)C(=O)NC(=S)N(CC)CC","InChI=1S/C13H18N2OS/c1-4-15(5-2)13(17)14-12(16)11-8-6-10(3)7-9-11/h6-9H,4-5H2,1-3H3,(H,14,16,17)","AJYQIMTUQGEFHY-UHFFFAOYSA-N","?","25","spectrophotometric","a1/apparent","?","acidic",8.77
"17266","O=CNO","ONC=O","InChI=1S/CH3NO2/c3-1-2-4/h1,4H,(H,2,3)","KDGKTJGPFXIBEB-UHFFFAOYSA-N","?","25","mean from 2","a1/thermodynamic","?","acidic",8.77
"14046","O1(N=C2(C(=NO)CCCC2(=N1)))","O=NC1CCCC2=NON=C21","InChI=1S/C6H7N3O2/c10-7-4-2-1-3-5-6(4)9-11-8-5/h4H,1-3H2","XVDVKEWREJZICI-UHFFFAOYSA-N","?",,"spectrophotometric","a/apparent","?","acidic",8.78
"17195","OC2(=CC1(=NC=C3(C=CC=CC3(=C1C=C2))))","OC1=CC2=NC=C3C=CC=CC3=C2C=C1","InChI=1S/C13H9NO/c15-10-5-6-12-11-4-2-1-3-9(11)8-14-13(12)7-10/h1-8,15H","PVRBBNVBVWFJSC-UHFFFAOYSA-N","?","20","spectrophotometric","a2/apparent","?","acidic",8.79
"11111","S=C1(NC(=O)C2(N1)(CCCCC2))","O=C1NC(=S)NC21CCCCC2","InChI=1S/C8H12N2OS/c11-6-8(10-7(12)9-6)4-2-1-3-5-8/h1-5H2,(H2,9,10,11,12)","QJQBNOHDDLCTFR-UHFFFAOYSA-N","?","18","spectrophotometric","a/apparent","?","acidic",8.79
"16102","S=C2(NC(=O)N(C1(OC(CO)C(C1)O))C=C2C)","CC1=CN(C2CC(O)C(CO)O2)C(=O)NC1=S","InChI=1S/C10H14N2O4S/c1-5-3-12(10(15)11-9(5)17)8-2-6(14)7(4-13)16-8/h3,6-8,13-14H,2,4H2,1H3,(H,11,15,17)","AVKSPBJBGGHUMW-UHFFFAOYSA-N","?",,"spectrophotometric","a/apparent","?","acidic",8.8
"16633","O=C2(C(=CC(=NC1(=CC=C(O)C=C1))C(=C2)C)C(C)C)","CC1=CC(=O)C(=CC1=NC1C=CC(O)=CC=1)C(C)C","InChI=1S/C16H17NO2/c1-10(2)14-9-15(11(3)8-16(14)19)17-12-4-6-13(18)7-5-12/h4-10,18H,1-3H3","MJRKOVPFNLKFIR-UHFFFAOYSA-N","?","30",,"apparent","?","acidic",8.8
"17667","ON=C(C#[N+][O-])C","CC(C#[N+][O-])N=O","InChI=1S/C3H4N2O2/c1-3(5-7)2-4-6/h3H,1H3","VZTZZBGPPBIMNT-UHFFFAOYSA-N","?","20","mean from 2","a1/apparent","?","acidic",8.8
"13792","O=CC1(=NC=NC2(=C1NC=N2))","O=CC1=NC=NC2N=CNC=21","InChI=1S/C6H4N4O/c11-1-4-5-6(9-2-7-4)10-3-8-5/h1-3H,(H,7,8,9,10)","NQFHKZPSNYOBIR-UHFFFAOYSA-N","?",,"spectrophotometric","a1/apparent","?","acidic",8.8
"12397","O=[N+]([O-])C2(=C1(C(=O)NC(C1=CC=C2)=O))","[O-][N+](=O)C1C=CC=C2C=1C(=O)NC2=O","InChI=1S/C8H4N2O4/c11-7-4-2-1-3-5(10(13)14)6(4)8(12)9-7/h1-3H,(H,9,11,12)","BONIIQYTWOPUQI-UHFFFAOYSA-N","?","25",,"a1/thermodynamic","NH","acidic",8.8
"12529","O=[N+]([O-])C2(=CC=1(C(=CC=C(C=1)O)C=C2))","[O-][N+](=O)C1=CC2=CC(O)=CC=C2C=C1","InChI=1S/C10H7NO3/c12-10-4-2-7-1-3-9(11(13)14)5-8(7)6-10/h1-6,12H","PEUWECFMAMZFKM-UHFFFAOYSA-N","?","25","spectrophotometric","a1/apparent","?","acidic",8.81
"17116","FC1(=CC(=C(O)C=C1)C[NH+]2(CCCCC2))","OC1=CC=C(F)C=C1CN1CCCCC1","InChI=1S/C12H16FNO/c13-11-4-5-12(15)10(8-11)9-14-6-2-1-3-7-14/h4-5,8,15H,1-3,6-7,9H2","IVYTVFCTERAZHM-UHFFFAOYSA-N","?","25","spectrophotometric","a1/apparent","OH","acidic",8.81
"17192","OC3(=CC=1(C(=NC2(=CC=CC=C2(C=1)))C=C3))","OC1=CC2=CC3=CC=CC=C3N=C2C=C1","InChI=1S/C13H9NO/c15-11-5-6-13-10(8-11)7-9-3-1-2-4-12(9)14-13/h1-8,15H","VUZCWTUAXNDZSX-UHFFFAOYSA-N","?","20","spectrophotometric","a2/apparent","?","acidic",8.81
"11731","OB(O)C1(=CC(N)=CC=C1)","NC1C=C(C=CC=1)B(O)O","InChI=1S/C6H8BNO2/c8-6-3-1-2-5(4-6)7(9)10/h1-4,9-10H,8H2","JMZFEHDNIAQMNB-UHFFFAOYSA-N","?","25","potentiometric","apparent","B(OH)2","acidic",8.81
"13237","O=C(NCCCC[NH+](C)C)C=NO","CN(C)CCCCNC(=O)CN=O","InChI=1S/C8H17N3O2/c1-11(2)6-4-3-5-9-8(12)7-10-13/h3-7H2,1-2H3,(H,9,12)","GGWBFNOTCQIZLE-UHFFFAOYSA-N","?","25","potentiometric","a1/apparent","?","acidic",8.81
"12440","OC=2(C1(=NC=NC(=C1C=CC=2)CCC))","CCCC1N=CN=C2C(O)=CC=CC2=1","InChI=1S/C11H12N2O/c1-2-4-9-8-5-3-6-10(14)11(8)13-7-12-9/h3,5-7,14H,2,4H2,1H3","KUCALNGKSZWXGU-UHFFFAOYSA-N","?","20","potentiometric","a/apparent","?","acidic",8.82
"10159","O=C(N)C1(NCCC1)","NC(O)C1CCCN=1","InChI=1S/C5H10N2O/c6-5(8)4-2-1-3-7-4/h5,8H,1-3,6H2","FEUDYCCAXYKRAD-UHFFFAOYSA-N","?",,"potentiometric","a/apparent","?","acidic",8.82
"13937","OC2(=CC=1(C(=NC=CC=1)C=C2))","OC1=CC2=CC=CN=C2C=C1","InChI=1S/C9H7NO/c11-8-3-4-9-7(6-8)2-1-5-10-9/h1-6,11H","OVYWMEWYEJLIER-UHFFFAOYSA-N","?","20","mean from 2","a2/apparent","-OH","acidic",8.82
"16769","S=C(N(CC)CC)NC(=O)C1(=CC=C(OCC)C=C1)","CCOC1C=CC(=CC=1)C(=O)NC(=S)N(CC)CC","InChI=1S/C14H20N2O2S/c1-4-16(5-2)14(19)15-13(17)11-7-9-12(10-8-11)18-6-3/h7-10H,4-6H2,1-3H3,(H,15,17,19)","QZGWYSHJLCADGI-UHFFFAOYSA-N","?","25","spectrophotometric","a1/apparent","?","acidic",8.83
"10699","S(=O)(=O)(N)C1(=CC(C#N)=CC=C1)","NS(=O)(=O)C1=CC(=CC=C1)C#N","InChI=1S/C7H6N2O2S/c8-5-6-2-1-3-7(4-6)12(9,10)11/h1-4H,(H2,9,10,11)","LTOFQPCBIZPXFH-UHFFFAOYSA-N","?","25","potentiometric","a1/thermodynamic","SO2NH-H","acidic",8.84
"10033","O=C(C1(=CC=CC1))C","C=C(O)C1CC=CC=1","InChI=1S/C7H8O/c1-6(8)7-4-2-3-5-7/h2-4,8H,1,5H2","HZWWSRNWKSNBIG-UHFFFAOYSA-N","?","30","spectrophotometric","a1/apparent","?","acidic",8.84
"15506","O=C1(C3(=C(OC(=C1)C2(=C(O)C=CC=C2))C=CC=C3))","OC1C=CC=CC=1C1=CC(=O)C2C=CC=CC=2O1","InChI=1S/C15H10O3/c16-12-7-3-1-5-10(12)15-9-13(17)11-6-2-4-8-14(11)18-15/h1-9,16H","ZZLQHXCRRMUGQJ-UHFFFAOYSA-N","?","23","spectrophotometric","a1/apparent","H+","acidic",8.85
"17610","O=C(CC(=O)C)C","C=C(O)CC(=C)O","InChI=1S/C5H8O2/c1-4(6)3-5(2)7/h6-7H,1-3H2","WYWLZNIBXOKPAO-UHFFFAOYSA-N","?","24","mean from 9","a1/thermodynamic","CH2","acidic",8.85
"14378","O=C1(NC(=O)CC1NC(=O)C)","C/C(/O)=N\C1CC(=O)NC=1O","InChI=1S/C6H8N2O3/c1-3(9)7-4-2-5(10)8-6(4)11/h11H,2H2,1H3,(H,7,9)(H,8,10)","RHGCSMHXZMVNPL-UHFFFAOYSA-N","?","20","potentiometric","a/apparent","?","acidic",8.85
"11686","O=C1(N(O)C(C)(C)C(C1)C)","CC1C=C(O)N(O)C1(C)C","InChI=1S/C7H13NO2/c1-5-4-6(9)8(10)7(5,2)3/h4-5,9-10H,1-3H3","FTLCBBBWBFMJML-UHFFFAOYSA-N","?",,"potentiometric","a/apparent","?","acidic",8.85
"13954","OC2(=CC1(=NC=CC=C1C=C2))","OC1=CC2=NC=CC=C2C=C1","InChI=1S/C9H7NO/c11-8-4-3-7-2-1-5-10-9(7)6-8/h1-6,11H","XCRPPAPDRUBKRJ-UHFFFAOYSA-N","?","20","potentiometric","a2/apparent","?","acidic",8.85
"10794","O=C(C(=NO)C1(=CC=CC=C1))C","C=C(O)C(N=O)C1C=CC=CC=1","InChI=1S/C9H9NO2/c1-7(11)9(10-12)8-5-3-2-4-6-8/h2-6,9,11H,1H2","NOHPPQWKRSZSEH-UHFFFAOYSA-N","?","20","potentiometric","a1/apparent","?","acidic",8.85
"12776","O=CC1(=CC(O)=CC=C1)","OC1C=C(C=O)C=CC=1","InChI=1S/C7H6O2/c8-5-6-2-1-3-7(9)4-6/h1-5,9H","IAVREABSGIHHMO-UHFFFAOYSA-N","?","25","mean from 3","a/thermodynamic","?","acidic",8.86
"13708","O=C(OC)C(=NO)C1(=CC=CC=C1)","COC(=O)C(N=O)C1C=CC=CC=1","InChI=1S/C9H9NO3/c1-13-9(11)8(10-12)7-5-3-2-4-6-7/h2-6,8H,1H3","JNIPIPZOPZIALP-UHFFFAOYSA-N","?","20","potentiometric","a1/apparent","?","acidic",8.87
"15762","S(=O)(=O)(NC1(=CC=C(OC)C=C1))C2(=CC=CC=C2)","COC1C=CC(=CC=1)NS(=O)(=O)C1C=CC=CC=1","InChI=1S/C13H13NO3S/c1-17-12-9-7-11(8-10-12)14-18(15,16)13-5-3-2-4-6-13/h2-10,14H,1H3","UZUQLWPXATZCDY-UHFFFAOYSA-N","?","23","mean from 4","a1/apparent","NH","acidic",8.88
"10138","SCC1(=NC=CN1C)","CN1C=CN=C1CS","InChI=1S/C5H8N2S/c1-7-3-2-6-5(7)4-8/h2-3,8H,4H2,1H3","UVWSKIZHAMYEAZ-UHFFFAOYSA-N","?","25","potentiometric","a2/apparent","?","acidic",8.88
"14529","OC1(=CC(=CC=C1)C[NH+](C)C)","CN(C)CC1C=CC=C(O)C=1","InChI=1S/C9H13NO/c1-10(2)7-8-4-3-5-9(11)6-8/h3-6,11H,7H2,1-2H3","HXMWGMZZNGHVPQ-UHFFFAOYSA-N","?","25","spectrophotometric","a1/apparent","OH","acidic",8.88
"12321","O=C(NCCCCC[NH+](C)C)C=NO","CN(C)CCCCCNC(=O)CN=O","InChI=1S/C9H19N3O2/c1-12(2)7-5-3-4-6-10-9(13)8-11-14/h3-8H2,1-2H3,(H,10,13)","KXBQRPZCIHZVID-UHFFFAOYSA-N","?","25","potentiometric","a1/apparent","?","acidic",8.88
"13962","OC2(=CC=1(C(=CC=NC=1)C=C2))","OC1=CC2=CN=CC=C2C=C1","InChI=1S/C9H7NO/c11-9-2-1-7-3-4-10-6-8(7)5-9/h1-6,11H","WCRKBMABEPCYII-UHFFFAOYSA-N","?","20","potentiometric","a2/apparent","?","acidic",8.88
"16108","S(=O)(=O)(NC1(=CC=CC=C1))C2(=CC=C(N)C=C2)","NC1C=CC(=CC=1)S(=O)(=O)NC1C=CC=CC=1","InChI=1S/C12H12N2O2S/c13-10-6-8-12(9-7-10)17(15,16)14-11-4-2-1-3-5-11/h1-9,14H,13H2","YBUXKQSCKVQATK-UHFFFAOYSA-N","?","20",,"a/apparent","SO2NHR","acidic",8.89
"15039","[N+]3(=CC=C(C1(=NC=2(C=CC=CC=2(N1))))C=C3)(C)","C[N+]1C=CC(=CC=1)C1NC2C=CC=CC=2N=1","InChI=1S/C13H11N3/c1-16-8-6-10(7-9-16)13-14-11-4-2-3-5-12(11)15-13/h2-9H,1H3/p+1","QFLATZNEOVQJFV-UHFFFAOYSA-O","?","25","spectrophotometric","a2/apparent","NH","acidic",8.89
"14275","O=CC1(=CC(O)=C(OC)C=C1)","COC1C=CC(C=O)=CC=1O","InChI=1S/C8H8O3/c1-11-8-3-2-6(5-9)4-7(8)10/h2-5,10H,1H3","JVTZFYYHCGSXJV-UHFFFAOYSA-N","?","25","spectrophotometric","a/thermodynamic","?","acidic",8.89
"17136","S1(C(=NN=C1C2(=CC=CC=C2))NC(=O)C)","C/C(/O)=N\C1=NN=C(S1)C1C=CC=CC=1","InChI=1S/C10H9N3OS/c1-7(14)11-10-13-12-9(15-10)8-5-3-2-4-6-8/h2-6H,1H3,(H,11,13,14)","MOHXQYYZAKQQCP-UHFFFAOYSA-N","?",,"spectrophotometric","a/apparent","?","acidic",8.9
"13505","[S+](CC(=O)C1(=CC=C(C)C=C1))(C)C","CC1C=CC(=CC=1)C(O)=C[S+](C)C","InChI=1S/C11H14OS/c1-9-4-6-10(7-5-9)11(12)8-13(2)3/h4-8H,1-3H3/p+1","ICIDMXCPOORPRU-UHFFFAOYSA-O","?","24","spectrophotometric","a1/apparent","RMe2S+ Br-","acidic",8.9
"16154","O=C2(C(=CC(=NC1(=CC=C(O)C=C1))C=C2C)C)","CC1=CC(C=C(C)C1=O)=NC1C=CC(O)=CC=1","InChI=1S/C14H13NO2/c1-9-7-12(8-10(2)14(9)17)15-11-3-5-13(16)6-4-11/h3-8,16H,1-2H3","GHMGLHVXVCAUCL-UHFFFAOYSA-N","?","30","potentiometric","a/apparent","?","acidic",8.9
"12957","O=C(N)C1(NCCCC1)","NC(O)C1CCCCN=1","InChI=1S/C6H12N2O/c7-6(9)5-3-1-2-4-8-5/h6,9H,1-4,7H2","JCWGJOIHVPABBI-UHFFFAOYSA-N","?","25","potentiometric","a/apparent","?","acidic",8.9
"12651","O=C(C=NO)C=C(C)C","CC(C)=CC(=O)CN=O","InChI=1S/C6H9NO2/c1-5(2)3-6(8)4-7-9/h3H,4H2,1-2H3","NGNGNSAOBVXCQH-UHFFFAOYSA-N","?","30","potentiometric","a1/apparent","?","acidic",8.9
"12082","N1(=NC=2(C=C(C)C=CC=2(N1)))","CC1=CC2N=NNC=2C=C1","InChI=1S/C7H7N3/c1-5-2-3-6-7(4-5)9-10-8-6/h2-4H,1H3,(H,8,9,10)","LRUDIIUSNGCQKF-UHFFFAOYSA-N","?",,"potentiometric","a/apparent","?","acidic",8.9
"14444","O=C(NO)C1(=CC=C(C)C=C1)","CC1=CC=C(C=C1)C(=O)NO","InChI=1S/C8H9NO2/c1-6-2-4-7(5-3-6)8(10)9-11/h2-5,11H,1H3,(H,9,10)","SFSSMGSFESHVQM-UHFFFAOYSA-N","?","25","potentiometric","a/apparent","?","acidic",8.9
"10872","O=C(NO)C1(=C(OC)C=CC=C1)","COC1C=CC=CC=1C(=O)NO","InChI=1S/C8H9NO3/c1-12-7-5-3-2-4-6(7)8(10)9-11/h2-5,11H,1H3,(H,9,10)","DGUKREATIVIORF-UHFFFAOYSA-N","?","25","potentiometric","a/apparent","?","acidic",8.9
"15344","O(C1(=C(O)C=CC(=C1)C=NC3(=NC=2(NC=NC=2C=N3))))C","COC1C=C(C=NC2=NC3NC=NC=3C=N2)C=CC=1O","InChI=1S/C13H11N5O2/c1-20-11-4-8(2-3-10(11)19)5-14-13-15-6-9-12(18-13)17-7-16-9/h2-7,19H,1H3,(H,15,16,17,18)","ZSVJBTMNAPRTIZ-UHFFFAOYSA-N","?","25","spectrophotometric","a2/apparent","OH","acidic",8.91
"16465","O=[N+]([O-])C2(=CC=C(NC(=O)CC(=O)C1(=CC=CC=C1))C=C2)","[O-][N+](=O)C1C=CC(=CC=1)/N=C(/O)\CC(=O)C1C=CC=CC=1","InChI=1S/C15H12N2O4/c18-14(11-4-2-1-3-5-11)10-15(19)16-12-6-8-13(9-7-12)17(20)21/h1-9H,10H2,(H,16,19)","QVWSMRKZRQSUSV-UHFFFAOYSA-N","?","30",,"a1/apparent","?","acidic",8.91
"16909","O=C(C2(=CC=[N+](CC1(=CC=C(C)C=C1))C=C2))CC3(=CC=CC=C3)","CC1C=CC(C[N+]2C=CC(=CC=2)C(O)=CC2C=CC=CC=2)=CC=1","InChI=1S/C21H19NO/c1-17-7-9-19(10-8-17)16-22-13-11-20(12-14-22)21(23)15-18-5-3-2-4-6-18/h2-15H,16H2,1H3/p+1","DBRLZQMHCHWHFV-UHFFFAOYSA-O","?","25","spectrophotometric","a1/apparent","?","acidic",8.91
"13768","S(C2(=NC=1(N=CNC=1C=N2)))C","CSC1=NC2N=CNC=2C=N1","InChI=1S/C6H6N4S/c1-11-6-7-2-4-5(10-6)9-3-8-4/h2-3H,1H3,(H,7,8,9,10)","GEVCSRLIETZLTD-UHFFFAOYSA-N","?","20","potentiometric","a2/apparent","?","acidic",8.91
"12719","N2(=C1(N=CNC1=CN=C2))","C1N=C2N=CNC2=CN=1","InChI=1S/C5H4N4/c1-4-5(8-2-6-1)9-3-7-4/h1-3H,(H,6,7,8,9)","KDCGOANMDULRCW-UHFFFAOYSA-N","?","20","mean from 2","a2/apparent","?","acidic",8.92
"16967","O=[N+]([O-])C1(=C([N+](=O)[O-])C=C2(NC=NC2(=C1)))","[O-][N+](=O)C1C=C2NC=NC2=CC=1[N+]([O-])=O","InChI=1S/C7H4N4O4/c12-10(13)6-1-4-5(9-3-8-4)2-7(6)11(14)15/h1-3H,(H,8,9)","GJKUZDYIYKJZOB-UHFFFAOYSA-N","?","25","potentiometric","a1/apparent","N-H","acidic",8.92
"14614","O=C(NCCCCCC[NH+](C)C)C=NO","CN(C)CCCCCCNC(=O)CN=O","InChI=1S/C10H21N3O2/c1-13(2)8-6-4-3-5-7-11-10(14)9-12-15/h3-9H2,1-2H3,(H,11,14)","BZYWDEDAIVYRRV-UHFFFAOYSA-N","?","25","potentiometric","a1/apparent","?","acidic",8.93
"13387","O1(C(=NC(=C1O)C)C2(=CC=CC=C2))","CC1N=C(OC=1O)C1C=CC=CC=1","InChI=1S/C10H9NO2/c1-7-10(12)13-9(11-7)8-5-3-2-4-6-8/h2-6,12H,1H3","DTYLLVHYYGGIBK-UHFFFAOYSA-N","?","25","spectrophotometric","a1/apparent","?","acidic",8.94
"15290","S(=O)(C3(=CC(OC)=C(C1(=NC=2(N=CC=NC=2(N1))))C=C3))C","CS(=O)C1=CC(OC)=C(C=C1)C1NC2N=CC=NC=2N=1","InChI=1S/C13H12N4O2S/c1-19-10-7-8(20(2)18)3-4-9(10)11-16-12-13(17-11)15-6-5-14-12/h3-7H,1-2H3,(H,14,15,16,17)","MBEJMHJXPPKKKF-UHFFFAOYSA-N","?","25","mean from 3","a2/apparent","?","acidic",8.94
"10830","ClC1(=C(Cl)C=CC(=C1)S(=O)(=O)N)","NS(=O)(=O)C1=CC(Cl)=C(Cl)C=C1","InChI=1S/C6H5Cl2NO2S/c7-5-2-1-4(3-6(5)8)12(9,10)11/h1-3H,(H2,9,10,11)","ILLSOONBCBUBOD-UHFFFAOYSA-N","?","25","potentiometric","a1/thermodynamic","SO2NH-H","acidic",8.94
"11310","O=[N+]([O-])C(CC([N+](=O)[O-])C)(C)C","CC(CC(C)(C)[N+]([O-])=O)[N+]([O-])=O","InChI=1S/C6H12N2O4/c1-5(7(9)10)4-6(2,3)8(11)12/h5H,4H2,1-3H3","IBHFLWSIQRXSEJ-UHFFFAOYSA-N","?","20","spectrophotometric","a1/apparent","?","acidic",8.95
"10038","ClC1(=CC(O)=CC=C1)","OC1C=C(Cl)C=CC=1","InChI=1S/C6H5ClO/c7-5-2-1-3-6(8)4-5/h1-4,8H","HORNXRXVQWOLPJ-UHFFFAOYSA-N","?","25","mean from 7","a1/apparent","?","acidic",8.96
"16050","O=C(NCCCCCCCC[NH+](C)C)C=NO","CN(C)CCCCCCCCNC(=O)CN=O","InChI=1S/C12H25N3O2/c1-15(2)10-8-6-4-3-5-7-9-13-12(16)11-14-17/h3-11H2,1-2H3,(H,13,16)","NPVJNVYQZQCNDR-UHFFFAOYSA-N","?","25","potentiometric","a1/apparent","?","acidic",8.97
"15202","O=C(NCCCCCCC[NH+](C)C)C=NO","CN(C)CCCCCCCNC(=O)CN=O","InChI=1S/C11H23N3O2/c1-14(2)9-7-5-3-4-6-8-12-11(15)10-13-16/h3-10H2,1-2H3,(H,12,15)","BEECQECZZGBPNK-UHFFFAOYSA-N","?","25","potentiometric","a1/apparent","?","acidic",8.98
"12209","S(=O)(=O)(N)C1(=CC(=CC=C1)C(F)(F)F)","NS(=O)(=O)C1=CC(=CC=C1)C(F)(F)F","InChI=1S/C7H6F3NO2S/c8-7(9,10)5-2-1-3-6(4-5)14(11,12)13/h1-4H,(H2,11,12,13)","ZUTVRDMZQSHCID-UHFFFAOYSA-N","?","25","potentiometric","a1/thermodynamic","SO2NH-H","acidic",8.98
"14322","O=C(C1(=NNC(=C1)C(=O)C))C","C=C(O)C1C=C(NN=1)C(=C)O","InChI=1S/C7H8N2O2/c1-4(10)6-3-7(5(2)11)9-8-6/h3,10-11H,1-2H2,(H,8,9)","LWBORLQUZFYATJ-UHFFFAOYSA-N","?",,"spectrophotometric","a/apparent","?","acidic",8.98
"13710","O=[N+]([O-])C1(=C(C(O)=C(C)C=C1C)C)","CC1C(O)=C(C)C=C(C)C=1[N+]([O-])=O","InChI=1S/C9H11NO3/c1-5-4-6(2)9(11)7(3)8(5)10(12)13/h4,11H,1-3H3","ZVRSQGUIDRECBV-UHFFFAOYSA-N","?","25",,"thermodynamic","?","acidic",8.98
"13706","O=C(OC)CC(=O)C1(=CN=CC=C1)","COC(O)=CC(=O)C1C=CC=NC=1","InChI=1S/C9H9NO3/c1-13-9(12)5-8(11)7-3-2-4-10-6-7/h2-6,12H,1H3","ZVNRWBAYSVEWRM-UHFFFAOYSA-N","?","25","spectrophotometric","a1/apparent","?","acidic",8.98
"15639","O=C(NCCCCCCCCC[NH+](C)C)C=NO","CN(C)CCCCCCCCCNC(=O)CN=O","InChI=1S/C13H27N3O2/c1-16(2)11-9-7-5-3-4-6-8-10-14-13(17)12-15-18/h3-12H2,1-2H3,(H,14,17)","WBFOJWAZYZTZBZ-UHFFFAOYSA-N","?","25","potentiometric","a1/apparent","?","acidic",8.99
"10040","[Br]C1(=CC(O)=CC=C1)","OC1C=C(Br)C=CC=1","InChI=1S/C6H5BrO/c7-5-2-1-3-6(8)4-5/h1-4,8H","MNOJRWOWILAHAV-UHFFFAOYSA-N","?","25","mean from 3","thermodynamic","?","acidic",8.99
"11687","O=C1(N(C=CC=C1O)CC)","CCN1C=CC=C(O)C1=O","InChI=1S/C7H9NO2/c1-2-8-5-3-4-6(9)7(8)10/h3-5,9H,2H2,1H3","PFMJLYROOSGHMN-UHFFFAOYSA-N","?","22.5",,"a1/apparent","OH","acidic",8.99
"16947","O=C(C1(=CC(O)=CC=C1))C2(=CC=CC=C2)","OC1C=C(C=CC=1)C(=O)C1C=CC=CC=1","InChI=1S/C13H10O2/c14-12-8-4-7-11(9-12)13(15)10-5-2-1-3-6-10/h1-9,14H","SHULEACXTONYPS-UHFFFAOYSA-N","?",,,"a1/apparent","OH","acidic",9.0
"15081","O=C(C1(=CC=CC=C1))C2(=NNC(=C2)C(=O)C)","C=C(O)C1=CC(=NN1)C(=O)C1C=CC=CC=1","InChI=1S/C12H10N2O2/c1-8(15)10-7-11(14-13-10)12(16)9-5-3-2-4-6-9/h2-7,15H,1H2,(H,13,14)","CBWLAQKPAUJZCX-UHFFFAOYSA-N","?",,"spectrophotometric","a/apparent","?","acidic",9.01