"Molecule name","OriginalSmiles","Canonical_QSARr","InChI_Code_QSARr","InChI Key_QSARr","Salt_Solvent (Concatenate)","temp","method","type","group","basicOrAcidic","pKa"
"10726","OC1(=CC=C(N=CN(C)C)C=C1)","CN(C)C=NC1C=CC(O)=CC=1","InChI=1S/C9H12N2O/c1-11(2)7-10-8-3-5-9(12)6-4-8/h3-7,12H,1-2H3","YXTSZBNGJXQOIM-UHFFFAOYSA-N","?","20","potentiometric","a2/apparent","?","acidic",10.54
"13984","N2(=C(NC)C1(=C(NN=C1)N=C2))","CNC1=NC=NC2NN=CC1=2","InChI=1S/C6H7N5/c1-7-5-4-2-10-11-6(4)9-3-8-5/h2-3H,1H3,(H2,7,8,9,10,11)","HXXBSUPHBFYSQW-UHFFFAOYSA-N","?","20","spectrophotometric","a2/apparent","?","acidic",10.55
"12400","S(=O)(=O)([O-])C1(=C(O)C=CC2(=C1C=NN2))","OC1C=CC2NN=CC=2C=1S(O)(=O)=O","InChI=1S/C7H6N2O4S/c10-6-2-1-5-4(3-8-9-5)7(6)14(11,12)13/h1-3,10H,(H,8,9)(H,11,12,13)","ROHHFOQQTWVGJM-UHFFFAOYSA-N","?","25","potentiometric","a/apparent","?","acidic",10.55
"14232","OC1(=C(C=C(C(C)C)C=C1)C)","CC1C=C(C=CC=1O)C(C)C","InChI=1S/C10H14O/c1-7(2)9-4-5-10(11)8(3)6-9/h4-7,11H,1-3H3","WYXXLXHHWYNKJF-UHFFFAOYSA-N","?","20","potentiometric","a1/thermodynamic","?","acidic",10.56
"17226","SCCC","CCCS","InChI=1S/C3H8S/c1-2-3-4/h4H,2-3H2,1H3","SUVIGLJNEAMWEG-UHFFFAOYSA-N","?","20","mean from 2","a1/apparent","SH","acidic",10.56
"12812","OC1(=C(C=C(C)C=C1)C)","CC1=CC(C)=C(O)C=C1","InChI=1S/C8H10O/c1-6-3-4-8(9)7(2)5-6/h3-5,9H,1-2H3","KUFFULVDNCHOFZ-UHFFFAOYSA-N","?","22","mean from 7","a1/thermodynamic","OH","acidic",10.56
"14491","OC(O)(C1(=[N+](C=CC=C1)C))C","C[N+]1C=CC=CC=1C(C)(O)O","InChI=1S/C8H12NO2/c1-8(10,11)7-5-3-4-6-9(7)2/h3-6,10-11H,1-2H3/q+1","GALMJTGMKOUCFW-UHFFFAOYSA-N","?","25","spectrophotometric","a1/apparent","-OH","acidic",10.57
"15489","O=C(N)CN(CC1(=C(O)C=CC=C1))CCN(CC2(=C(O)C=CC=C2))CC(=O)N","N=C(O)CN(CC1=CC=CC=C1O)CCN(CC(=N)O)CC1=CC=CC=C1O","InChI=1S/C20H26N4O4/c21-19(27)13-23(11-15-5-1-3-7-17(15)25)9-10-24(14-20(22)28)12-16-6-2-4-8-18(16)26/h1-8,25-26H,9-14H2,(H2,21,27)(H2,22,28)","NDSQZPPPJAKNLK-UHFFFAOYSA-N","?, ?","25","potentiometric","a2/apparent","?, ?","acidic",10.58
"13722","O=C1(N(C(NOC)=CC(N1C)=O)C)","CON=C1CC(=O)N(C)C(=O)N1C","InChI=1S/C7H11N3O3/c1-9-5(8-13-3)4-6(11)10(2)7(9)12/h4H2,1-3H3","VCTBQZBDIDMKKK-UHFFFAOYSA-N","?","20",,"a/apparent","?","acidic",10.58
"14472","O(C1(=CC(=CC=C1)C=NO))C","COC1C=CC=C(CN=O)C=1","InChI=1S/C8H9NO2/c1-11-8-4-2-3-7(5-8)6-9-10/h2-5H,6H2,1H3","BUTFDETYWBEQLV-UHFFFAOYSA-N","?","25",,"apparent","?","acidic",10.59
"13403","OC=2(C1(=NC(=CC(=C1C=CC=2)C)C))","CC1C=C(C)N=C2C(O)=CC=CC=12","InChI=1S/C11H11NO/c1-7-6-8(2)12-11-9(7)4-3-5-10(11)13/h3-6,13H,1-2H3","UXFZNPGAWHMSRK-UHFFFAOYSA-N","?","20","spectrophotometric","a/apparent","?","acidic",10.6
"16471","OC1(=NNC(=C1CCCCCCCCC)C2(=CC=CC=C2))","CCCCCCCCCC1C(O)=NNC=1C1C=CC=CC=1","InChI=1S/C18H26N2O/c1-2-3-4-5-6-7-11-14-16-17(19-20-18(16)21)15-12-9-8-10-13-15/h8-10,12-13H,2-7,11,14H2,1H3,(H2,19,20,21)","MQTDVMLDXCSTBR-UHFFFAOYSA-N","?",,"potentiometric","a/apparent","?","acidic",10.6
"10150","O=[N+]([O-])C=1(NC=CC=1)","[O-][N+](=O)C1=CC=CN1","InChI=1S/C4H4N2O2/c7-6(8)4-2-1-3-5-4/h1-3,5H","FTBBGQKRYUTLMP-UHFFFAOYSA-N","?",,"spectrophotometric","a/apparent","?","acidic",10.6
"10369","O=C(OC)CC(=O)C","CC(=O)C=C(O)OC","InChI=1S/C5H8O3/c1-4(6)3-5(7)8-2/h3,7H,1-2H3","IJRQPYDFQBLIDC-UHFFFAOYSA-N","?","25","spectrophotometric","a1/apparent","?","acidic",10.6
"11309","O=C(OCC(=NO)C(=NO)C)C","CC(N=O)C(COC(=C)O)N=O","InChI=1S/C6H10N2O4/c1-4(7-10)6(8-11)3-12-5(2)9/h4,6,9H,2-3H2,1H3","LLNCHLQLMOOKOV-UHFFFAOYSA-N","?, ?","25","potentiometric","a1/apparent","?, ?","acidic",10.6
"12809","OC1(=C(C=CC=C1C)C)","CC1C=CC=C(C)C=1O","InChI=1S/C8H10O/c1-6-4-3-5-7(2)8(6)9/h3-5,9H,1-2H3","NXXYKOUNUYWIHA-UHFFFAOYSA-N","?","23","mean from 7","a1/apparent","OH","acidic",10.6
"10566","OC1(=C(C=CC(=C1)C(C)C)CC)","CCC1C=CC(=CC=1O)C(C)C","InChI=1S/C11H16O/c1-4-9-5-6-10(8(2)3)7-11(9)12/h5-8,12H,4H2,1-3H3","NTPXZONRQTVIEQ-UHFFFAOYSA-N","?","20","spectrophotometric","a1/thermodynamic","?","acidic",10.61
"10800","OC1(=C(O)C=CC(=C1)CCNC)","CNCCC1=CC(O)=C(O)C=C1","InChI=1S/C9H13NO2/c1-10-5-4-7-2-3-8(11)9(12)6-7/h2-3,6,10-12H,4-5H2,1H3","NGKZFDYBISXGGS-UHFFFAOYSA-N","?","20","potentiometric","a2/apparent","?","acidic",10.61
"16132","S=C(NC1(=CC(F)=CC=C1))C2(=CC=C(C)C=C2)","CC1C=CC(=CC=1)C(=S)NC1=CC(F)=CC=C1","InChI=1S/C14H12FNS/c1-10-5-7-11(8-6-10)14(17)16-13-4-2-3-12(15)9-13/h2-9H,1H3,(H,16,17)","NQTZDCKKTGYPGY-UHFFFAOYSA-N","?",,"spectrophotometric","a1/apparent","?","acidic",10.63
"14454","OC1(=C(O)C=CC(=C1)CCN)","NCCC1=CC(O)=C(O)C=C1","InChI=1S/C8H11NO2/c9-4-3-6-1-2-7(10)8(11)5-6/h1-2,5,10-11H,3-4,9H2","VYFYYTLLBUKUHU-UHFFFAOYSA-N","?","20","potentiometric","a2/apparent","?","acidic",10.63
"11439","OC1(=C(C(=CC(=C1)C)C)C)","CC1C=C(C)C(C)=C(O)C=1","InChI=1S/C9H12O/c1-6-4-7(2)8(3)9(10)5-6/h4-5,10H,1-3H3","OGRAOKJKVGDSFR-UHFFFAOYSA-N","?","24","mean from 2","a/thermodynamic","?","acidic",10.64
"11308","O=C(OC)CC(=NO)C(=NO)C","CC(N=O)C(C=C(O)OC)N=O","InChI=1S/C6H10N2O4/c1-4(7-10)5(8-11)3-6(9)12-2/h3-5,9H,1-2H3","ZNSYLPBALQASRP-UHFFFAOYSA-N","?, ?","25","potentiometric","a1/apparent","?, ?","acidic",10.66
"12595","O=C(OCC)CC(=O)C","CC(=O)C=C(O)OCC","InChI=1S/C6H10O3/c1-3-9-6(8)4-5(2)7/h4,8H,3H2,1-2H3","PSOFTRCDXYFIIV-UHFFFAOYSA-N","?","22","mean from 3","a1/apparent","?","acidic",10.66
"10276","ONC1(=CC=CC=C1)","ONC1C=CC=CC=1","InChI=1S/C6H7NO/c8-7-6-4-2-1-3-5-6/h1-5,7-8H","CKRZKMFTZCFYGB-UHFFFAOYSA-N","?","25",,"b1/thermodynamic","?","acidic",10.68
"10571","O=C(C1(=C(C=C(C)C=C1C)C))C","CC1C=C(C)C=C(C)C=1C(=C)O","InChI=1S/C11H14O/c1-7-5-8(2)11(10(4)12)9(3)6-7/h5-6,12H,4H2,1-3H3","NFZHCZLKXDNPEI-UHFFFAOYSA-N","?","25",,"a1/apparent","H","acidic",10.69
"10565","OC1(=C(C=CC=C1)CC(C)(C)C)","CC(C)(C)CC1C=CC=CC=1O","InChI=1S/C11H16O/c1-11(2,3)8-9-6-4-5-7-10(9)12/h4-7,12H,8H2,1-3H3","BHTUQORBCROFCY-UHFFFAOYSA-N","?","25","potentiometric","a1/apparent","?","acidic",10.69
"15827","O=C(OC)C1(C(O)CCC3(C1CC=4(C=2(NC=5(C=CC=CC=5(C=2C=C[N+]=4(C3)))))))","COC(O)=C1C2CC3C4NC5=CC=CC=C5C=4C=C[N+]=3CC2CCC1O","InChI=1S/C21H22N2O3/c1-26-21(25)19-15-10-17-20-14(13-4-2-3-5-16(13)22-20)8-9-23(17)11-12(15)6-7-18(19)24/h2-5,8-9,12,15,18,24-25H,6-7,10-11H2,1H3/p+1","YYRITQFZKRCBMP-UHFFFAOYSA-O","?",,"potentiometric","a/apparent","?","acidic",10.69
"17666","ON=C(NO)CC","CCC(NO)N=O","InChI=1S/C3H8N2O2/c1-2-3(4-6)5-7/h3-4,6H,2H2,1H3","VJPQHBDYHBTKNU-UHFFFAOYSA-N","?","20","potentiometric","a1/apparent","?","acidic",10.7
"14329","ON=C(NO)C1(=CC=CC=C1)","ONC(N=O)C1C=CC=CC=1","InChI=1S/C7H8N2O2/c10-8-7(9-11)6-4-2-1-3-5-6/h1-5,7-8,10H","JKXMFTPOGBFPGK-UHFFFAOYSA-N","?","20","potentiometric","a1/apparent","?","acidic",10.7
"10678","ON=C(NO)CC1(=CC=CC=C1)","ONC(CC1C=CC=CC=1)N=O","InChI=1S/C8H10N2O2/c11-9-8(10-12)6-7-4-2-1-3-5-7/h1-5,8-9,11H,6H2","QQPHKVWUTAHDBS-UHFFFAOYSA-N","?","20","potentiometric","a1/apparent","?","acidic",10.7
"10561","OC1(=CC=C(CC(C)(C)C)C=C1)","CC(C)(C)CC1C=CC(O)=CC=1","InChI=1S/C11H16O/c1-11(2,3)8-9-4-6-10(12)7-5-9/h4-7,12H,8H2,1-3H3","ICTHGQKQYABWMV-UHFFFAOYSA-N","?","25","potentiometric","a1/thermodynamic","OH","acidic",10.71
"14625","O=C([O-])C=CC(C1(=C(O)C=CC=C1))(C)C","CC(C)(C=CC(O)=O)C1=CC=CC=C1O","InChI=1S/C12H14O3/c1-12(2,8-7-11(14)15)9-5-3-4-6-10(9)13/h3-8,13H,1-2H3,(H,14,15)","SKURDBHBCWOQKB-UHFFFAOYSA-N","?","39","spectrophotometric","a2/apparent","OH","acidic",10.71
"15747","[Br]C2(=CC=C(S(=O)(=O)NCC1(=CC=CC=C1))C=C2)","O=S(=O)(NCC1C=CC=CC=1)C1C=CC(Br)=CC=1","InChI=1S/C13H12BrNO2S/c14-12-6-8-13(9-7-12)18(16,17)15-10-11-4-2-1-3-5-11/h1-9,15H,10H2","KBFYMIDQZWIKJR-UHFFFAOYSA-N","?","25","spectrophotometric","a1/apparent","N-H","acidic",10.71
"10897","[Se](O)C1(=C([N+](=O)[O-])C=C(C)C=C1)","CC1=CC(=C(C=C1)[Se]O)[N+]([O-])=O","InChI=1S/C7H7NO3Se/c1-5-2-3-7(12-11)6(4-5)8(9)10/h2-4,11H,1H3","JGVLOSHDUXJGDW-UHFFFAOYSA-N","?","25","spectrophotometric","a1/apparent","?","acidic",10.71
"13634","[Se](O)C1(=C([N+](=O)[O-])C=C(OC)C=C1)","COC1=CC(=C(C=C1)[Se]O)[N+]([O-])=O","InChI=1S/C7H7NO4Se/c1-12-5-2-3-7(13-11)6(4-5)8(9)10/h2-4,11H,1H3","LGJRIYPRUIIAQB-UHFFFAOYSA-N","?","25","spectrophotometric","a1/apparent","?","acidic",10.71
"15699","S=C(NC1(=CC=CC=C1))NC(=S)C2(=CC=CC=C2)","S=C(NC1C=CC=CC=1)NC(=S)C1C=CC=CC=1","InChI=1S/C14H12N2S2/c17-13(11-7-3-1-4-8-11)16-14(18)15-12-9-5-2-6-10-12/h1-10H,(H2,15,16,17,18)","BGPYLGZBIGOPPX-UHFFFAOYSA-N","?","27","potentiometric","a1/apparent","NH","acidic",10.72
"14521","ON=CC=CC1(=CC=CC=C1)","O=NCC=CC1C=CC=CC=1","InChI=1S/C9H9NO/c11-10-8-4-7-9-5-2-1-3-6-9/h1-7H,8H2","GRQJRHCMSZWPDM-UHFFFAOYSA-N","?, ?","25",,"apparent","?, ?","acidic",10.72
"14228","OC1(=C(C=C(C)C=C1)C(C)C)","CC1C=CC(O)=C(C=1)C(C)C","InChI=1S/C10H14O/c1-7(2)9-6-8(3)4-5-10(9)11/h4-7,11H,1-3H3","DSTPUJAJSXTJHM-UHFFFAOYSA-N","?","20","potentiometric","a1/thermodynamic","?","acidic",10.73
"14624","O=C(OCC)CC(=O)C1(=CC=C(C)C=C1)","CC1C=CC(=CC=1)C(=O)C=C(O)OCC","InChI=1S/C12H14O3/c1-3-15-12(14)8-11(13)10-6-4-9(2)5-7-10/h4-8,14H,3H2,1-2H3","BLRIXYZHCVZWQC-UHFFFAOYSA-N","?","20","spectrophotometric","a1/apparent","?","acidic",10.73
"12479","S1(C(=[N+](C)C(=C1)C)CC2(=CC=CC=C2))","CC1=CSC(CC2C=CC=CC=2)=[N+]1C","InChI=1S/C12H14NS/c1-10-9-14-12(13(10)2)8-11-6-4-3-5-7-11/h3-7,9H,8H2,1-2H3/q+1","RFOJEDWQEQHRNA-UHFFFAOYSA-N","?","25","spectrophotometric","a1/apparent","?","acidic",10.75
"17401","ON=C(NO)C","CC(NO)N=O","InChI=1S/C2H6N2O2/c1-2(3-5)4-6/h2-3,5H,1H3","IFMOKZJAIQFFBJ-UHFFFAOYSA-N","?","20","potentiometric","a1/apparent","?","acidic",10.75
"10015","OC1(=CC=C(O)C=C1)","OC1C=CC(O)=CC=1","InChI=1S/C6H6O2/c7-5-1-2-6(8)4-3-5/h1-4,7-8H","QIGBRXMKCJKVMJ-UHFFFAOYSA-N","?, ?","23","mean from 6","a1/apparent","?, ?","acidic",10.75
"10564","OC1(=C(C=C(C)C(=C1)C(C)C)C)","CC1C=C(C)C(=CC=1O)C(C)C","InChI=1S/C11H16O/c1-7(2)10-6-11(12)9(4)5-8(10)3/h5-7,12H,1-4H3","ZNPTYDKWMGSQRD-UHFFFAOYSA-N","?","20","spectrophotometric","a1/thermodynamic","?","acidic",10.76
"15121","ClC2(=CC=C(C(=S)NC1(=CC=CC=C1))C=C2)","S=C(NC1C=CC=CC=1)C1C=CC(Cl)=CC=1","InChI=1S/C13H10ClNS/c14-11-8-6-10(7-9-11)13(16)15-12-4-2-1-3-5-12/h1-9H,(H,15,16)","YNKJKAJUCJLCLE-UHFFFAOYSA-N","?",,"spectrophotometric","a1/apparent","?","acidic",10.76
"10563","OC1(=C(C=C(C(C)C)C=C1)CC)","CCC1C=C(C=CC=1O)C(C)C","InChI=1S/C11H16O/c1-4-9-7-10(8(2)3)5-6-11(9)12/h5-8,12H,4H2,1-3H3","QNHBKQISWLLWPG-UHFFFAOYSA-N","?","20","spectrophotometric","a1/thermodynamic","?","acidic",10.77
"13889","N1(=C(N=C2(N=CNC2(=C1N)))N)","NC1N=C2N=CNC2=C(N)N=1","InChI=1S/C5H6N6/c6-3-2-4(9-1-8-2)11-5(7)10-3/h1H,(H5,6,7,8,9,10,11)","MSSXOMSJDRHRMC-UHFFFAOYSA-N","?","20","potentiometric","a2/apparent","?","acidic",10.77
"17170","S=C1(N(C=2(C=C3(CCCCC3(=CC=2(N1)))))C)","CN1C(=S)NC2C=C3CCCCC3=CC1=2","InChI=1S/C12H14N2S/c1-14-11-7-9-5-3-2-4-8(9)6-10(11)13-12(14)15/h6-7H,2-5H2,1H3,(H,13,15)","PFINJAXCPFKIBL-UHFFFAOYSA-N","?","20","spectrophotometric","a/apparent","?","acidic",10.78
"17485","SCCCC","CCCCS","InChI=1S/C4H10S/c1-2-3-4-5/h5H,2-4H2,1H3","WQAQPCDUOCURKW-UHFFFAOYSA-N","?","20",,"apparent","?","acidic",10.78
"10562","OC1(=C(C=C(C)C(=C1)C)C(C)C)","CC1=CC(C(C)C)=C(O)C=C1C","InChI=1S/C11H16O/c1-7(2)10-5-8(3)9(4)6-11(10)12/h5-7,12H,1-4H3","RFRYAUSWHSKOIY-UHFFFAOYSA-N","?","20","potentiometric","a1/thermodynamic","?","acidic",10.79
"16138","S=C(NC1(=C(C=CC=C1C)C))C2(=CC=CC=C2)","CC1C=CC=C(C)C=1NC(=S)C1C=CC=CC=1","InChI=1S/C15H15NS/c1-11-7-6-8-12(2)14(11)16-15(17)13-9-4-3-5-10-13/h3-10H,1-2H3,(H,16,17)","YKAVTJLYNLDNRW-UHFFFAOYSA-N","?","20","potentiometric","a1/apparent","?","acidic",10.79
"11289","N1(=C(N=C2(N=C(NC2(=C1N))N))N)","NC1N=C(N)N=C2N=C(N)NC=12","InChI=1S/C5H7N7/c6-2-1-3(11-4(7)9-1)12-5(8)10-2/h(H7,6,7,8,9,10,11,12)","FNUSUXSXQXLDBC-UHFFFAOYSA-N","?","20","potentiometric","a3/apparent","?","acidic",10.79
"16136","ClC2(=CC=C(NC(=S)C1(=CC=C(C)C=C1))C=C2)","CC1C=CC(=CC=1)C(=S)NC1C=CC(Cl)=CC=1","InChI=1S/C14H12ClNS/c1-10-2-4-11(5-3-10)14(17)16-13-8-6-12(15)7-9-13/h2-9H,1H3,(H,16,17)","MVTDYKYUUXHRDB-UHFFFAOYSA-N","?",,"spectrophotometric","a1/apparent","?","acidic",10.8
"16415","OC4(=CC3(=C(C2(C(C1(C(C(O)C(C1)O)(C)CC2))CC3))C=C4))","CC12CCC3C(CCC4C=C(O)C=CC=43)C1CC(O)C2O","InChI=1S/C18H24O3/c1-18-7-6-13-12-5-3-11(19)8-10(12)2-4-14(13)15(18)9-16(20)17(18)21/h3,5,8,13-17,19-21H,2,4,6-7,9H2,1H3","PROQIPRRNZUXQM-UHFFFAOYSA-N","?",,"potentiometric","thermodynamic","?","acidic",10.8
"11600","S=C1(N(C(=O)C(N1)(C)C)C)","CN1C(=O)C(C)(C)NC1=S","InChI=1S/C6H10N2OS/c1-6(2)4(9)8(3)5(10)7-6/h1-3H3,(H,7,10)","YMJPIIZFIQCDRB-UHFFFAOYSA-N","?","18","spectrophotometric","a/apparent","?","acidic",10.8
"11655","ClC1(=CC(NC=S)=CC=C1)","S=CNC1C=C(Cl)C=CC=1","InChI=1S/C7H6ClNS/c8-6-2-1-3-7(4-6)9-5-10/h1-5H,(H,9,10)","TUEGYBJHFYIZLQ-UHFFFAOYSA-N","?","20","potentiometric","a1/apparent","?","acidic",10.8
"17566","S(=O)(=O)(N)C","CS(N)(=O)=O","InChI=1S/CH5NO2S/c1-5(2,3)4/h1H3,(H2,2,3,4)","HNQIVZYLYMDVSB-UHFFFAOYSA-N","?","25","potentiometric","a1/apparent","?","acidic",10.8
"16137","[Br]C2(=CC=C(NC(=S)C1(=CC=C(C)C=C1))C=C2)","CC1C=CC(=CC=1)C(=S)NC1C=CC(Br)=CC=1","InChI=1S/C14H12BrNS/c1-10-2-4-11(5-3-10)14(17)16-13-8-6-12(15)7-9-13/h2-9H,1H3,(H,16,17)","XOPIEKPLDSEEDY-UHFFFAOYSA-N","?",,"spectrophotometric","a1/apparent","?","acidic",10.81
"13666","S=CNC1(=CC(C(=O)OC)=CC=C1)","COC(=O)C1C=C(C=CC=1)NC=S","InChI=1S/C9H9NO2S/c1-12-9(11)7-3-2-4-8(5-7)10-6-13/h2-6H,1H3,(H,10,13)","ORHXDYAUIRBICC-UHFFFAOYSA-N","?","20","potentiometric","a1/apparent","?","acidic",10.81
"10567","OC1(=C(C=C(CC)C=C1)C(C)C)","CCC1=CC(C(C)C)=C(O)C=C1","InChI=1S/C11H16O/c1-4-9-5-6-11(12)10(7-9)8(2)3/h5-8,12H,4H2,1-3H3","HFXZXGVECOWQGS-UHFFFAOYSA-N","?","20","spectrophotometric","a1/thermodynamic","?","acidic",10.82
"13668","OC1(=C(C=CC=C1)CN(CC)CC)","CCN(CC1C=CC=CC=1O)CC","InChI=1S/C11H17NO/c1-3-12(4-2)9-10-7-5-6-8-11(10)13/h5-8,13H,3-4,9H2,1-2H3","IGXXOUGMPVOZFH-UHFFFAOYSA-N","?","25","mean from 4","a1/apparent","?","acidic",10.82
"13475","OC=2(C1(=NC=CC=C1C(N)=CC=2N))","NC1C=C(N)C2=CC=CN=C2C=1O","InChI=1S/C9H9N3O/c10-6-4-7(11)9(13)8-5(6)2-1-3-12-8/h1-4,13H,10-11H2","LZKZQHIHBPJQIL-UHFFFAOYSA-N","?","20",,"a2/apparent","?","acidic",10.83
"10240","O1(C(=CC=C1)C=NO)","O=NCC1=CC=CO1","InChI=1S/C5H5NO2/c7-6-4-5-2-1-3-8-5/h1-3H,4H2","CNMGZCZZLXJIRT-UHFFFAOYSA-N","?, ?","25",,"apparent","?, ?","acidic",10.835
"12211","OC1(=C(C=C(C)C=C1)CN(CC)CC)","CC1C=CC(O)=C(CN(CC)CC)C=1","InChI=1S/C12H19NO/c1-4-13(5-2)9-11-8-10(3)6-7-12(11)14/h6-8,14H,4-5,9H2,1-3H3","BPIIGTWIPYOEIV-UHFFFAOYSA-N","?","25","mean from 5","a1/apparent","?","acidic",10.84
"12067","N2(=C(N)C1(=C(NN=C1)N=C2))","NC1=NC=NC2NN=CC=21","InChI=1S/C5H5N5/c6-4-3-1-9-10-5(3)8-2-7-4/h1-2H,(H3,6,7,8,9,10)","LHCPRYRLDOSKHK-UHFFFAOYSA-N","?","20","spectrophotometric","a2/apparent","?","acidic",10.84
"11489","OC1(=CC(=CC=C1)B(O)[O-])","[O-]B(O)C1C=C(O)C=CC=1","InChI=1S/C6H6BO3/c8-6-3-1-2-5(4-6)7(9)10/h1-4,8-9H/q-1","HMBPJXHZIHGOML-UHFFFAOYSA-N","?","25","potentiometric","a2/apparent","?","acidic",10.84
"14231","OC1(=C(C=CC=C1C)C(C)C)","CC1=CC=CC(C(C)C)=C1O","InChI=1S/C10H14O/c1-7(2)9-6-4-5-8(3)10(9)11/h4-7,11H,1-3H3","KFETUQFRWIVAMU-UHFFFAOYSA-N","?","20","spectrophotometric","a1/thermodynamic","?","acidic",10.85
"15123","ClC2(=CC=C(NC(=S)C1(=CC=CC=C1))C=C2)","S=C(NC1C=CC(Cl)=CC=1)C1C=CC=CC=1","InChI=1S/C13H10ClNS/c14-11-6-8-12(9-7-11)15-13(16)10-4-2-1-3-5-10/h1-9H,(H,15,16)","QTQYTNZDYLXLPM-UHFFFAOYSA-N","?",,"spectrophotometric","a1/apparent","?","acidic",10.85
"15722","O=[N+]([O-])C2(=CC=C(C(=NO)C1(=CC=CC=C1))C=C2)","[O-][N+](=O)C1C=CC(=CC=1)C(N=O)C1C=CC=CC=1","InChI=1S/C13H10N2O3/c16-14-13(10-4-2-1-3-5-10)11-6-8-12(9-7-11)15(17)18/h1-9,13H","PHTGYKQQEMZZFH-UHFFFAOYSA-N","?","25",,"apparent","?","acidic",10.85
"11117","[O-][N+]1(=C(N=C2(N=CNC2(=C1N)))N)","NC1=C2NC=NC2=NC(N)=[N+]1[O-]","InChI=1S/C5H6N6O/c6-3-2-4(9-1-8-2)10-5(7)11(3)12/h1H,6H2,(H3,7,8,9,10)","VUNJMZVRHYNKSG-UHFFFAOYSA-N","?, ?",,"spectrophotometric","a3/apparent","?, ?","acidic",10.85
"13709","O(C1(=C(OC)C=CC(=C1)C=NO))C","COC1C=CC(CN=O)=CC=1OC","InChI=1S/C9H11NO3/c1-12-8-4-3-7(6-10-11)5-9(8)13-2/h3-5H,6H2,1-2H3","WCZOGCVLBREKCN-UHFFFAOYSA-N","?","25",,"thermodynamic","?","acidic",10.85
"11846","OC(=CC(=C)C)C=C(C)C","CC(C)=CC(O)=CC(C)=C","InChI=1S/C9H14O/c1-7(2)5-9(10)6-8(3)4/h5-6,10H,1H2,2-4H3","PMJKTXWNYSIHQA-UHFFFAOYSA-N","?","20",,"a1/apparent","OH","acidic",10.85
"14685","O(C1(=CC(=C(O)C=C1)CN(CC)CC))C","COC1C=CC(O)=C(CN(CC)CC)C=1","InChI=1S/C12H19NO2/c1-4-13(5-2)9-10-8-11(15-3)6-7-12(10)14/h6-8,14H,4-5,9H2,1-3H3","LHWYIGTXOZCFPM-UHFFFAOYSA-N","?","25","mean from 5","a1/apparent","?","acidic",10.86
"14723","O=[N+]([O-])C1(=CC=C(CC(C#N)C#N)C=C1)","N#CC(CC1=CC=C(C=C1)[N+]([O-])=O)C#N","InChI=1S/C10H7N3O2/c11-6-9(7-12)5-8-1-3-10(4-2-8)13(14)15/h1-4,9H,5H2","ZDSSWGOAKPAKBU-UHFFFAOYSA-N","?","25","spectrophotometric","a1/thermodynamic","?","acidic",10.87
"15129","S=C(NC1(=CC=CC=C1))C2(=C(C=CC=C2)C)","CC1C=CC=CC=1C(=S)NC1C=CC=CC=1","InChI=1S/C14H13NS/c1-11-7-5-6-10-13(11)14(16)15-12-8-3-2-4-9-12/h2-10H,1H3,(H,15,16)","UTBDTGQOEPAWER-UHFFFAOYSA-N","?","20","potentiometric","a1/apparent","?","acidic",10.87
"17176","OC3(=C2(NC1(=C(C=CC=C1)NC2=CC=C3)))","OC1C=CC=C2NC3C=CC=CC=3NC2=1","InChI=1S/C12H10N2O/c15-11-7-3-6-10-12(11)14-9-5-2-1-4-8(9)13-10/h1-7,13-15H","DACNFQAXWSXPRW-UHFFFAOYSA-N","?","30","potentiometric","a/apparent","?","acidic",10.88
"16127","S(=O)(=O)(NCC=1(OC=CC=1))C2(=CC=C(N)C=C2)","NC1=CC=C(C=C1)S(=O)(=O)NCC1=CC=CO1","InChI=1S/C11H12N2O3S/c12-9-3-5-11(6-4-9)17(14,15)13-8-10-2-1-7-16-10/h1-7,13H,8,12H2","GDZYTNDTKOAWSN-UHFFFAOYSA-N","?",,"potentiometric","a/apparent","SO2NHR","acidic",10.89
"16134","[Br]C2(=CC(C(=S)NC1(=CC=C(C)C=C1))=CC=C2)","CC1C=CC(=CC=1)NC(=S)C1C=C(Br)C=CC=1","InChI=1S/C14H12BrNS/c1-10-5-7-13(8-6-10)16-14(17)11-3-2-4-12(15)9-11/h2-9H,1H3,(H,16,17)","TZNLXYINVSJAIP-UHFFFAOYSA-N","?",,"spectrophotometric","a1/apparent","?","acidic",10.89
"17397","S=C(N)C(=S)N","NC(=S)C(N)=S","InChI=1S/C2H4N2S2/c3-1(5)2(4)6/h(H2,3,5)(H2,4,6)","OAEGRYMCJYIXQT-UHFFFAOYSA-N","?","20",,,"?","acidic",10.89
"12544","O=C(OC)NC1(=NC=NC2(=C1NC=N2))","COC(=O)NC1=NC=NC2N=CNC=21","InChI=1S/C7H7N5O2/c1-14-7(13)12-6-4-5(9-2-8-4)10-3-11-6/h2-3H,1H3,(H2,8,9,10,11,12,13)","ZIXLQZZOPCEFIK-UHFFFAOYSA-N","?, ?",,"spectrophotometric","a2/apparent","?, ?","acidic",10.89
"14473","O(C1(=C(C=CC=C1)C=NO))C","COC1C=CC=CC=1CN=O","InChI=1S/C8H9NO2/c1-11-8-5-3-2-4-7(8)6-9-10/h2-5H,6H2,1H3","YIWUJCSPKRHBCE-UHFFFAOYSA-N","?","25",,"a/apparent","?","acidic",10.89
"13342","OC=1(N(N=C(C=1)C2(=CC=CC=C2))C)","CN1N=C(C=C1O)C1C=CC=CC=1","InChI=1S/C10H10N2O/c1-12-10(13)7-9(11-12)8-5-3-2-4-6-8/h2-7,13H,1H3","NRFHROYGWWFLKU-UHFFFAOYSA-N","?",,"potentiometric","b/apparent","?","acidic",10.9
"10569","OC1(=C(C=C(C(C)C)C=C1C)C)","CC1=CC(=CC(C)=C1O)C(C)C","InChI=1S/C11H16O/c1-7(2)10-5-8(3)11(12)9(4)6-10/h5-7,12H,1-4H3","XBDGGYWLUULJRH-UHFFFAOYSA-N","?","20","spectrophotometric","a1/thermodynamic","?","acidic",10.9
"17024","OC=1(N(N=C(C=1CC2(=CC=CC=C2))C)C)","CC1=NN(C)C(O)=C1CC1C=CC=CC=1","InChI=1S/C12H14N2O/c1-9-11(12(15)14(2)13-9)8-10-6-4-3-5-7-10/h3-7,15H,8H2,1-2H3","QLGCSHCRLDHLCA-UHFFFAOYSA-N","?",,"potentiometric","b/apparent","?","acidic",10.9
"15704","O=[N+]([O-])C2(=CC=C(C(C#N)C1(=CC=CC=C1))C=C2)","N#CC(C1C=CC=CC=1)C1C=CC(=CC=1)[N+]([O-])=O","InChI=1S/C14H10N2O2/c15-10-14(11-4-2-1-3-5-11)12-6-8-13(9-7-12)16(17)18/h1-9,14H","DZRUHJSVLPGCMS-UHFFFAOYSA-N","?","25","spectrophotometric","a1/apparent","?","acidic",10.9
"17832","OC1(=NNC(=C1)C)","CC1=CC(O)=NN1","InChI=1S/C4H6N2O/c1-3-2-4(7)6-5-3/h2H,1H3,(H2,5,6,7)","WGVHNCAJPFIFCR-UHFFFAOYSA-N","?",,"potentiometric","b/apparent","?","acidic",10.9
"11660","S=C1(SC(C=C(N1)C)(C)C)","CC1CC(C)(C)SC(=S)N=1","InChI=1S/C7H11NS2/c1-5-4-7(2,3)10-6(9)8-5/h4H2,1-3H3","WKEHUSYCOAAVLN-UHFFFAOYSA-N","?",,,"a/apparent","?","acidic",10.9
"11237","N2(=C(NCC)C1(=C(NN=C1)N=C2))","CCNC1=NC=NC2NN=CC1=2","InChI=1S/C7H9N5/c1-2-8-6-5-3-11-12-7(5)10-4-9-6/h3-4H,2H2,1H3,(H2,8,9,10,11,12)","SBDWBYNASHULMY-UHFFFAOYSA-N","?","20","spectrophotometric","a2/apparent","?","acidic",10.9
"13501","OC1(=C(C=C(CC)C(=C1)C)C(C)C)","CC1=CC(O)=C(C=C1CC)C(C)C","InChI=1S/C12H18O/c1-5-10-7-11(8(2)3)12(13)6-9(10)4/h6-8,13H,5H2,1-4H3","REUXPEYAOYKLSP-UHFFFAOYSA-N","?","20","spectrophotometric","a1/thermodynamic","?","acidic",10.91