"Molecule name","OriginalSmiles","Canonical_QSARr","InChI_Code_QSARr","InChI Key_QSARr","Salt_Solvent (Concatenate)","temp","method","type","group","basicOrAcidic","pKa"
"15893","S1(C(=NC=C1)NP(=O)(OC2(=CC=CC=C2))C3(=CC=C(N)C=C3))","NC1C=CC(=CC=1)P(=O)(NC1=NC=CS1)OC1C=CC=CC=1","InChI=1S/C15H14N3O2PS/c16-12-6-8-14(9-7-12)21(19,18-15-17-10-11-22-15)20-13-4-2-1-3-5-13/h1-11H,16H2,(H,17,18,19)","RBSSDCZGOTYXIM-UHFFFAOYSA-N","?",,"potentiometric","a/apparent","?","acidic",9.7
"11737","S(=O)(=O)(N)C1(=CC=CC=C1)","NS(=O)(=O)C1C=CC=CC=1","InChI=1S/C6H7NO2S/c7-10(8,9)6-4-2-1-3-5-6/h1-5H,(H2,7,8,9)","KHBQMWCZKVMBLN-UHFFFAOYSA-N","?","20","mean from 2","a1/thermodynamic","SO2NH-H","acidic",9.7
"13934","O=C1(NC(=O)C2(C1CCCC2))","OC1=NC(=O)C2CCCCC12","InChI=1S/C8H11NO2/c10-7-5-3-1-2-4-6(5)8(11)9-7/h5-6H,1-4H2,(H,9,10,11)","WLDMPODMCFGWAA-UHFFFAOYSA-N","?","20","potentiometric","a/apparent","?","acidic",9.72
"13195","O=[N+]([O-])C(CC([N+](=O)[O-])CC)(C)C","CCC(CC(C)(C)[N+]([O-])=O)[N+]([O-])=O","InChI=1S/C7H14N2O4/c1-4-6(8(10)11)5-7(2,3)9(12)13/h6H,4-5H2,1-3H3","QWOKAHBEANJGBV-UHFFFAOYSA-N","?","20","spectrophotometric","a1/apparent","?","acidic",9.73
"13854","O=C(N)C1(C2(CCN(C1)CC2))","N=C(O)C1CN2CCC1CC2","InChI=1S/C8H14N2O/c9-8(11)7-5-10-3-1-6(7)2-4-10/h6-7H,1-5H2,(H2,9,11)","OEFLOIIPWWSINC-UHFFFAOYSA-N","?","25","mean from 2","a1/apparent","?","acidic",9.74
"13321","OC2(=C1(N=C(C)N(C1=C(O)C=C2)C))","CC1=NC2C(=C(O)C=CC=2O)N1C","InChI=1S/C9H10N2O2/c1-5-10-8-6(12)3-4-7(13)9(8)11(5)2/h3-4,12-13H,1-2H3","QVQFRWCSOXDKBA-UHFFFAOYSA-N","?","30","spectrophotometric","a1/apparent","4-OH","acidic",9.75
"12220","OC1(=C(C=CC=C1)CCC[N+](C)(C)C)","C[N+](C)(C)CCCC1C=CC=CC=1O","InChI=1S/C12H19NO/c1-13(2,3)10-6-8-11-7-4-5-9-12(11)14/h4-5,7,9H,6,8,10H2,1-3H3/p+1","WMXCKDFGVMJIAK-UHFFFAOYSA-O","?","25","potentiometric","a1/apparent","?","acidic",9.78
"13684","OC1(=CC=C(CC[N+](C)(C)C)C=C1)","C[N+](C)(C)CCC1C=CC(O)=CC=1","InChI=1S/C11H17NO/c1-12(2,3)9-8-10-4-6-11(13)7-5-10/h4-7H,8-9H2,1-3H3/p+1","PTOJXIKSKSASRB-UHFFFAOYSA-O","?","25","potentiometric","a1/apparent","?","acidic",9.8
"16642","OC=2(C1(=NC=CC=C1C=CC=2C(C=C)CC(C)(C)C))","CC(C)(C)CC(C=C)C1C=CC2=CC=CN=C2C=1O","InChI=1S/C17H21NO/c1-5-12(11-17(2,3)4)14-9-8-13-7-6-10-18-15(13)16(14)19/h5-10,12,19H,1,11H2,2-4H3","KFTMHZQMEBYSFX-UHFFFAOYSA-N","?","25",,"a2/apparent","O-H","acidic",9.8
"15711","S=C(NC1(=CC=CC=C1))C2(=CC=C([N+](=O)[O-])C=C2)","[O-][N+](=O)C1C=CC(=CC=1)C(=S)NC1C=CC=CC=1","InChI=1S/C13H10N2O2S/c16-15(17)12-8-6-10(7-9-12)13(18)14-11-4-2-1-3-5-11/h1-9H,(H,14,18)","SQYJDKLHHWSERM-UHFFFAOYSA-N","?","20","potentiometric","a1/apparent","?","acidic",9.81
"10668","O=C(N)C(=NO)C1(=CC=CC=C1)","NC(=O)C(N=O)C1C=CC=CC=1","InChI=1S/C8H8N2O2/c9-8(11)7(10-12)6-4-2-1-3-5-6/h1-5,7H,(H2,9,11)","TWJNWZLTCWEPMS-UHFFFAOYSA-N","?, ?","20","potentiometric","a1/apparent","?, ?","acidic",9.825
"12362","O=C1(N(C(=O)C=2(C(C)=NNC=2(N1C)))C)","CC1=NNC2=C1C(=O)N(C)C(=O)N2C","InChI=1S/C8H10N4O2/c1-4-5-6(10-9-4)11(2)8(14)12(3)7(5)13/h1-3H3,(H,9,10)","VSPRBFLKSINHLP-UHFFFAOYSA-N","?","20","spectrophotometric","a/apparent","?","acidic",9.83
"10798","OC1(=CC(=CC=C1)C(O)CNC)","CNCC(O)C1C=C(O)C=CC=1","InChI=1S/C9H13NO2/c1-10-6-9(12)7-3-2-4-8(11)5-7/h2-5,9-12H,6H2,1H3","SONNWYBIRXJNDC-UHFFFAOYSA-N","?",,"spectrophotometric","a2/apparent","?","acidic",9.84
"10059","N=1(N=C(C)N(C=1C)N)","CC1=NN=C(C)N1N","InChI=1S/C4H8N4/c1-3-6-7-4(2)8(3)5/h5H2,1-2H3","MIIKMZAVLKMOFM-UHFFFAOYSA-N","?","25",,"apparent","?","acidic",9.85
"12627","S(=O)(=O)(N)C(C(=O)N)C","CC(C(=N)O)S(N)(=O)=O","InChI=1S/C3H8N2O3S/c1-2(3(4)6)9(5,7)8/h2H,1H3,(H2,4,6)(H2,5,7,8)","SUHRMMXNCHLNMB-UHFFFAOYSA-N","?","25","potentiometric","a1/apparent","?","acidic",9.86
"10042","FC1(=CC=C(O)C=C1)","OC1=CC=C(F)C=C1","InChI=1S/C6H5FO/c7-5-1-3-6(8)4-2-5/h1-4,8H","RHMPLDJJXGPMEX-UHFFFAOYSA-N","?","25","mean from 3","a1/apparent","?","acidic",9.88
"16362","O=[N+]([O-])C4(=CC=C(OC(=O)C2(C1(=C(C=CC=C1)C3(=C2C=CC=C3))))C=C4)","[O-][N+](=O)C1C=CC(=CC=1)OC(O)=C1C2C=CC=CC=2C2C=CC=CC=21","InChI=1S/C20H13NO4/c22-20(25-14-11-9-13(10-12-14)21(23)24)19-17-7-3-1-5-15(17)16-6-2-4-8-18(16)19/h1-12,22H","NLXYORKZAZABSV-UHFFFAOYSA-N","?","25","spectrophotometric","a1/apparent","?","acidic",9.9
"13933","O=C1(NC(=O)C2(=C1C=CC=C2))","O=C1NC(=O)C2C=CC=CC1=2","InChI=1S/C8H5NO2/c10-7-5-3-1-2-4-6(5)8(11)9-7/h1-4H,(H,9,10,11)","XKJCHHZQLQNZHY-UHFFFAOYSA-N","?","22","mean from 3","a1/thermodynamic","NH","acidic",9.91
"11873","S(=O)(=O)(N)C(C(=O)N)(C)C","CC(C)(C(N)=O)S(N)(=O)=O","InChI=1S/C4H10N2O3S/c1-4(2,3(5)7)10(6,8)9/h1-2H3,(H2,5,7)(H2,6,8,9)","DBHDXVCIFJEMDG-UHFFFAOYSA-N","?","25","potentiometric","a1/apparent","?","acidic",9.92
"11181","OC=2(C1(=NC=CC=C1C(C)=CC=2))","CC1=CC=C(O)C2=NC=CC=C21","InChI=1S/C10H9NO/c1-7-4-5-9(12)10-8(7)3-2-6-11-10/h2-6,12H,1H3","RPVGLMKJGQMQSN-UHFFFAOYSA-N","?","25","potentiometric","a2/apparent","?","acidic",9.93
"12655","O=C(N(O)C)C(C)(C)C","CN(O)C(=O)C(C)(C)C","InChI=1S/C6H13NO2/c1-6(2,3)5(8)7(4)9/h9H,1-4H3","KJMFIZJSQBXPHB-UHFFFAOYSA-N","?","25",,"a1/apparent","?","acidic",9.94
"16139","ClC1(=C(Cl)C=CC(=C1)NC(=S)C2(=CC=CC=C2))","S=C(NC1=CC(Cl)=C(Cl)C=C1)C1C=CC=CC=1","InChI=1S/C13H9Cl2NS/c14-11-7-6-10(8-12(11)15)16-13(17)9-4-2-1-3-5-9/h1-8H,(H,16,17)","WNKKGJFPNJKUPB-UHFFFAOYSA-N","?",,"spectrophotometric","a1/apparent","?","acidic",9.96
"13264","OC2(=C(C1(=CC=CC=C1))C=CC=C2)","OC1C=CC=CC=1C1C=CC=CC=1","InChI=1S/C12H10O/c13-12-9-5-4-8-11(12)10-6-2-1-3-7-10/h1-9,13H","LLEMOWNGBBNAJR-UHFFFAOYSA-N","?","22","mean from 2","a/apparent","?","acidic",9.99
"12506","OC1(=C(C(=CN=C1)C2(CCCCC2))C)","CC1=C(O)C=NC=C1C1CCCCC1","InChI=1S/C12H17NO/c1-9-11(7-13-8-12(9)14)10-5-3-2-4-6-10/h7-8,10,14H,2-6H2,1H3","FKMIOEHSGYAQJS-UHFFFAOYSA-N","?",,,"a/apparent","2","acidic",10.0
"13479","N2(=C(C=1(NC=NC=1N=C2))C(=NN)N)","NC(N=N)C1=NC=NC2N=CNC=21","InChI=1S/C6H7N7/c7-5(13-8)3-4-6(11-1-9-3)12-2-10-4/h1-2,5,8H,7H2,(H,9,10,11,12)","TVHLDBKIPYSTAX-UHFFFAOYSA-N","?",,"spectrophotometric","a2/apparent","?","acidic",10.0
"12559","ON=C2(C1(=NC=CC=C1C(=NO)C=C2))","O=NC1C=CC(N=O)C2C=CC=NC=21","InChI=1S/C9H7N3O2/c13-11-7-3-4-8(12-14)9-6(7)2-1-5-10-9/h1-5,7-8H","YAQIHBMPEQRRIF-UHFFFAOYSA-N","?","25","spectrophotometric","a2/apparent","prot.","acidic",10.0
"12222","OC1(=C(C=CC=C1C)C[NH+](CC)CC)","CC1C=CC=C(CN(CC)CC)C=1O","InChI=1S/C12H19NO/c1-4-13(5-2)9-11-8-6-7-10(3)12(11)14/h6-8,14H,4-5,9H2,1-3H3","LDIGJJQBTZCIIT-UHFFFAOYSA-N","?","25","spectrophotometric","a1/apparent","O-H","acidic",10.02
"10732","O=[N+]([O-])C1(=CC=C(C=NO)C=C1)","[O-][N+](=O)C1C=CC(CN=O)=CC=1","InChI=1S/C7H6N2O3/c10-8-5-6-1-3-7(4-2-6)9(11)12/h1-4H,5H2","LRYUWXNYWAFFAX-UHFFFAOYSA-N","?","24","mean from 2","a1/apparent","?","acidic",10.03
"12012","OC2(=CC1(=C(NN=C1)C=C2))","OC1=CC2C=NNC=2C=C1","InChI=1S/C7H6N2O/c10-6-1-2-7-5(3-6)4-8-9-7/h1-4,10H,(H,8,9)","ZHDXWEPRYNHNDC-UHFFFAOYSA-N","?","25","potentiometric","a/apparent","?","acidic",10.05
"11184","OC=2(C1(=NC(=CC=C1C=CC=2)C))","CC1=CC=C2C=CC=C(O)C2=N1","InChI=1S/C10H9NO/c1-7-5-6-8-3-2-4-9(12)10(8)11-7/h2-6,12H,1H3","NBYLBWHHTUWMER-UHFFFAOYSA-N","?","23","mean from 4","a1/apparent","O-H","acidic",10.08
"12192","O=C(N(O)C(C)(C)C)C1(=CC=CC=C1)","CC(C)(C)N(O)C(=O)C1C=CC=CC=1","InChI=1S/C11H15NO2/c1-11(2,3)12(14)10(13)9-7-5-4-6-8-9/h4-8,14H,1-3H3","CRKDRSMVZRDGQU-UHFFFAOYSA-N","?","25","potentiometric","a1/apparent","?","acidic",10.1
"15208","O5(C4(=C2(C1(=C(O)C(OC)=CC=C1CC3(C2=C(CCN3C)C=C4OC5)))))","COC1=CC=C2CC3C4C(C2=C1O)=C1OCOC1=CC=4CCN3C","InChI=1S/C19H19NO4/c1-20-6-5-11-8-14-19(24-9-23-14)17-15(11)12(20)7-10-3-4-13(22-2)18(21)16(10)17/h3-4,8,12,21H,5-7,9H2,1-2H3","LODGIKWNLDQZBM-UHFFFAOYSA-N","?","25","spectrophotometric","a1/apparent","?","acidic",10.1
"13412","OC=1(C=2(C(C(N)=CC=1C)=CC=CC=2))","CC1C=C(N)C2=CC=CC=C2C=1O","InChI=1S/C11H11NO/c1-7-6-10(12)8-4-2-3-5-9(8)11(7)13/h2-6,13H,12H2,1H3","UGQFCTZXVAPVCS-UHFFFAOYSA-N","?","20","potentiometric","a/apparent","OH","acidic",10.12
"12964","ON=CC1(=NC=CC=C1)","O=NCC1C=CC=CN=1","InChI=1S/C6H6N2O/c9-8-5-6-3-1-2-4-7-6/h1-4H,5H2","NZNHTKNELYIQNB-UHFFFAOYSA-N","?","25","mean from 5","a2/thermodynamic","prot.","acidic",10.14
"10700","S(=O)(=O)(N)C1(=CC=C(CN)C=C1)","NCC1=CC=C(C=C1)S(N)(=O)=O","InChI=1S/C7H10N2O2S/c8-5-6-1-3-7(4-2-6)12(9,10)11/h1-4H,5,8H2,(H2,9,10,11)","TYMRLRRVMHJFTF-UHFFFAOYSA-N","?","20","mean from 2","a/thermodynamic","?","acidic",10.15
"11768","OC1(=CC=C(N(C)C)C=C1)","CN(C)C1C=CC(O)=CC=1","InChI=1S/C8H11NO/c1-9(2)7-3-5-8(10)6-4-7/h3-6,10H,1-2H3","JVVRCYWZTJLJSG-UHFFFAOYSA-N","?","25","mean from 2","a1/apparent","?","acidic",10.16
"15019","N3(=C(NC1(CCCCC1))C=2(NC=NC=2N=C3))","C1CCCCC1NC1=NC=NC2N=CNC=21","InChI=1S/C11H15N5/c1-2-4-8(5-3-1)16-11-9-10(13-6-12-9)14-7-15-11/h6-8H,1-5H2,(H2,12,13,14,15,16)","YEWYVRQMZKOENB-UHFFFAOYSA-N","?",,,"a2/apparent","?","acidic",10.2
"13149","[S-]C1(=NC(=NC(=N1)N)N)","NC1=NC(S)=NC(N)=N1","InChI=1S/C3H5N5S/c4-1-6-2(5)8-3(9)7-1/h(H5,4,5,6,7,8,9)","HRIJSYATNFJXHM-UHFFFAOYSA-N","?",,"potentiometric","b2/apparent","?","acidic",10.2
"15127","S=C(NC1(=C(C=CC=C1)C))C2(=CC=CC=C2)","CC1C=CC=CC=1NC(=S)C1C=CC=CC=1","InChI=1S/C14H13NS/c1-11-7-5-6-10-13(11)15-14(16)12-8-3-2-4-9-12/h2-10H,1H3,(H,15,16)","OFKDEVSZZSYYPD-UHFFFAOYSA-N","?","20","potentiometric","a1/apparent","?","acidic",10.21
"10032","OC1(=C(C=CC=C1)C)","CC1C=CC=CC=1O","InChI=1S/C7H8O/c1-6-4-2-3-5-7(6)8/h2-5,8H,1H3","QWVGKYWNOKOFNN-UHFFFAOYSA-N","?","22","mean from 11","a1/thermodynamic","OH","acidic",10.22
"17477","O=C([O-])C=NO","OC(=O)CN=O","InChI=1S/C2H3NO3/c4-2(5)1-3-6/h1H2,(H,4,5)","RMZNXRYIFGTWPF-UHFFFAOYSA-N","?","20","potentiometric","a2/apparent","?","acidic",10.23
"14178","O(C1(=CC=C(O)C=C1))CCC","CCCOC1C=CC(O)=CC=1","InChI=1S/C9H12O2/c1-2-7-11-9-5-3-8(10)4-6-9/h3-6,10H,2,7H2,1H3","KIIIPQXXLVCCQP-UHFFFAOYSA-N","?","25","potentiometric","a1/apparent","?","acidic",10.23
"12762","O(C1(=CC=C(O)C=C1))C","COC1C=CC(O)=CC=1","InChI=1S/C7H8O2/c1-9-7-4-2-6(8)3-5-7/h2-5,8H,1H3","NWVVVBRKAWDGAB-UHFFFAOYSA-N","?","24","mean from 11","a1/apparent","?","acidic",10.24
"16492","S(=O)(=O)(NCC1(=CC=CC=C1))C2(=CC=C(S(=O)(=O)C)C=C2)","CS(=O)(=O)C1C=CC(=CC=1)S(=O)(=O)NCC1C=CC=CC=1","InChI=1S/C14H15NO4S2/c1-20(16,17)13-7-9-14(10-8-13)21(18,19)15-11-12-5-3-2-4-6-12/h2-10,15H,11H2,1H3","ZJMQRYLUQCCIHD-UHFFFAOYSA-N","?","25","spectrophotometric","a1/apparent","N-H","acidic",10.25
"14227","OC1(=CC=C(C(C)(C)C)C=C1)","CC(C)(C)C1C=CC(O)=CC=1","InChI=1S/C10H14O/c1-10(2,3)8-4-6-9(11)7-5-8/h4-7,11H,1-3H3","QHPQWRBYOIRBIT-UHFFFAOYSA-N","?","25","mean from 2","a1/thermodynamic","OH","acidic",10.27
"11953","OC2(=CC1(=C(CCC1)C=C2))","OC1=CC2CCCC=2C=C1","InChI=1S/C9H10O/c10-9-5-4-7-2-1-3-8(7)6-9/h4-6,10H,1-3H2","PEHSSTUGJUBZBI-UHFFFAOYSA-N","?","16","mean from 4","thermodynamic","?","acidic",10.29
"16872","OC4(=CC(=C(N=NC3(=CC1(=C(C=2(C=CC=CC=2(C1)))C=C3)))C=C4)C)","CC1C=C(O)C=CC=1N=NC1=CC2CC3C=CC=CC=3C=2C=C1","InChI=1S/C20H16N2O/c1-13-10-17(23)7-9-20(13)22-21-16-6-8-19-15(12-16)11-14-4-2-3-5-18(14)19/h2-10,12,23H,11H2,1H3","YHELYTRELJRMBS-UHFFFAOYSA-N","?","25","potentiometric","b/apparent","?","acidic",10.3
"14266","O=C(OC)C1(=C(O)C=CC=C1)","COC(=O)C1C=CC=CC=1O","InChI=1S/C8H8O3/c1-11-8(10)6-4-2-3-5-7(6)9/h2-5,9H,1H3","OSWPMRLSEDHDFF-UHFFFAOYSA-N","?","24","mean from 2","a/apparent","?","acidic",10.3
"12805","OC1(=CC(=C(C)C=C1)C)","CC1C=C(O)C=CC=1C","InChI=1S/C8H10O/c1-6-3-4-8(9)5-7(6)2/h3-5,9H,1-2H3","YCOXTKKNXUZSKD-UHFFFAOYSA-N","?","21","mean from 7","a1/thermodynamic","OH","acidic",10.32
"14230","OC1(=C(C=CC(=C1)C(C)C)C)","CC1C=CC(=CC=1O)C(C)C","InChI=1S/C10H14O/c1-7(2)9-5-4-8(3)10(11)6-9/h4-7,11H,1-3H3","RECUKUPTGUEGMW-UHFFFAOYSA-N","?","25",,"apparent","?","acidic",10.35
"16297","S2(C1(=NC=NC(=C1NC(C2)=O)N3(CCOCC3)))","OC1CSC2=NC=NC(=C2N=1)N1CCOCC1","InChI=1S/C10H12N4O2S/c15-7-5-17-10-8(13-7)9(11-6-12-10)14-1-3-16-4-2-14/h6H,1-5H2,(H,13,15)","NXZMSMVSXOXJBF-UHFFFAOYSA-N","?","20","spectrophotometric","a2/apparent","?","acidic",10.37
"10735","O=[N+]([O-])C1(=C(C=CC=C1)C=NO)","[O-][N+](=O)C1C=CC=CC=1CN=O","InChI=1S/C7H6N2O3/c10-8-5-6-3-1-2-4-7(6)9(11)12/h1-4H,5H2","CBGPHOYBYMVZRO-UHFFFAOYSA-N","?, ?","25",,"apparent","?, ?","acidic",10.4
"13346","ON=CC=1(C=2(C(N=CC=1)=CC=CC=2))","O=NCC1=CC=NC2=CC=CC=C12","InChI=1S/C10H8N2O/c13-12-7-8-5-6-11-10-4-2-1-3-9(8)10/h1-6H,7H2","GIDTWRKUFXMHAH-UHFFFAOYSA-N","?","20","spectrophotometric","a2/apparent","?","acidic",10.42
"11253","O=C1(N(C(=NC2(=C1NC=N2))N)C)","CN1C(N)=NC2N=CNC=2C1=O","InChI=1S/C6H7N5O/c1-11-5(12)3-4(9-2-8-3)10-6(11)7/h2H,1H3,(H2,7,10)(H,8,9)","RFLVMTUMFYRZCB-UHFFFAOYSA-N","?","22","mean from 2","a1/apparent","?","acidic",10.43
"16124","O=[N+]([O-])C=2(C=1(C(=C[N+](CCCO)=CC=1)C=CC=2))","[O-][N+](=O)C1=CC=CC2=C[N+](CCCO)=CC=C21","InChI=1S/C12H13N2O3/c15-8-2-6-13-7-5-11-10(9-13)3-1-4-12(11)14(16)17/h1,3-5,7,9,15H,2,6,8H2/q+1","GNHXSCSIFPTDHS-UHFFFAOYSA-N","?","25","potentiometric","a2/apparent","O-H","acidic",10.45
"16951","O(C1(=CC=C(O)C=C1))CC2(=CC=CC=C2)","OC1=CC=C(C=C1)OCC1C=CC=CC=1","InChI=1S/C13H12O2/c14-12-6-8-13(9-7-12)15-10-11-4-2-1-3-5-11/h1-9,14H,10H2","VYQNWZOUAUKGHI-UHFFFAOYSA-N","?","25","potentiometric","a1/thermodynamic","OH","acidic",10.47
"12095","O=C(C(C(=O)C)CC1(=CC=CC=C1))C","C=C(O)C(CC1C=CC=CC=1)C(=C)O","InChI=1S/C12H14O2/c1-9(13)12(10(2)14)8-11-6-4-3-5-7-11/h3-7,12-14H,1-2,8H2","XHSSVJVYPDNXHW-UHFFFAOYSA-N","?","25","spectrophotometric","a1/thermodynamic","?","acidic",10.49
"12949","OC1(=C(N)C=CC=C1N)","NC1C=CC=C(N)C=1O","InChI=1S/C6H8N2O/c7-4-2-1-3-5(8)6(4)9/h1-3,9H,7-8H2","XBQYRNRIHZDZPK-UHFFFAOYSA-N","?","20","spectrophotometric","a3/apparent","?","acidic",10.5
"14369","[O-]C1(=[N+](NC(=C1CCC)C)C)","CC1N[N+](C)=C(O)C=1CCC","InChI=1S/C8H14N2O/c1-4-5-7-6(2)9-10(3)8(7)11/h4-5H2,1-3H3,(H,9,11)/p+1","BGSUKFODMNPDGT-UHFFFAOYSA-O","?",,"potentiometric","b/apparent","?","acidic",10.5
"17077","FC1(=CC(=C(O)C=C1)CN2(CCOCC2))","OC1C=CC(F)=CC=1CN1CCOCC1","InChI=1S/C11H14FNO2/c12-10-1-2-11(14)9(7-10)8-13-3-5-15-6-4-13/h1-2,7,14H,3-6,8H2","BGESHHOKSIOPOK-UHFFFAOYSA-N","?","25","spectrophotometric","a2/apparent","R2NH","acidic",10.52
"14459","O(C1(=C(O)C=CC=C1CN))C","COC1=C(O)C=CC=C1CN","InChI=1S/C8H11NO2/c1-11-8-6(5-9)3-2-4-7(8)10/h2-4,10H,5,9H2,1H3","MWMAXRIRXNYYMV-UHFFFAOYSA-N","?","25","potentiometric","a2/thermodynamic","?","acidic",10.54
"11440","OC1(=C(C=C(C)C(=C1)C)C)","CC1C=C(C)C(C)=CC=1O","InChI=1S/C9H12O/c1-6-4-8(3)9(10)5-7(6)2/h4-5,10H,1-3H3","VXSCPERJHPWROZ-UHFFFAOYSA-N","?","25",,"apparent","?","acidic",10.55
"14842","O=C(C(C(=O)C)CC1(=CC=C(OC)C=C1))C","COC1C=CC(CC(C(=C)O)C(=C)O)=CC=1","InChI=1S/C13H16O3/c1-9(14)13(10(2)15)8-11-4-6-12(16-3)7-5-11/h4-7,13-15H,1-2,8H2,3H3","IOLSUUWHWMOODZ-UHFFFAOYSA-N","?","25","spectrophotometric","a1/thermodynamic","?","acidic",10.57
"11279","O=[N+]([O-])C2(=CC=1(N=CNC=1C=C2))","[O-][N+](=O)C1=CC2N=CNC=2C=C1","InChI=1S/C7H5N3O2/c11-10(12)5-1-2-6-7(3-5)9-4-8-6/h1-4H,(H,8,9)","XPAZGLFMMUODDK-UHFFFAOYSA-N","?","25","potentiometric","a1/apparent","N-H","acidic",10.58
"16506","[N+]=24(C(=C1(NC=3(C=CC=CC=3(C1=CC=2))))C=C5(CCCCC5(=C4)))","C1CCCC2=C[N+]3=CC=C4C(NC5C=CC=CC=54)=C3C=C21","InChI=1S/C19H16N2/c1-2-6-14-12-21-10-9-16-15-7-3-4-8-17(15)20-19(16)18(21)11-13(14)5-1/h3-4,7-12H,1-2,5-6H2/p+1","UQVUEULZDJRMJR-UHFFFAOYSA-O","?","18","potentiometric","a/apparent","?","acidic",10.6
"14343","S(=O)(=O)(N)C1(=CC=C(N)C=C1)","NC1C=CC(=CC=1)S(N)(=O)=O","InChI=1S/C6H8N2O2S/c7-5-1-3-6(4-2-5)11(8,9)10/h1-4H,7H2,(H2,8,9,10)","FDDDEECHVMSUSB-UHFFFAOYSA-N","?","22","mean from 6","b2/apparent","?","acidic",10.6
"13413","OC2(=C(C1(=NC=CC=C1))C=CC=C2)","OC1C=CC=CC=1C1C=CC=CN=1","InChI=1S/C11H9NO/c13-11-7-2-1-5-9(11)10-6-3-4-8-12-10/h1-8,13H","HPDNGBIRSIWOST-UHFFFAOYSA-N","?","20","potentiometric","a2/apparent","prot.","acidic",10.63
"13049","OC1(=C(N)C=C(O)C=C1)","NC1C=C(O)C=CC=1O","InChI=1S/C6H7NO2/c7-5-3-4(8)1-2-6(5)9/h1-3,8-9H,7H2","SBXKRBZKPQBLOD-UHFFFAOYSA-N","?, ?","22","spectrophotometric","a2/apparent","?, ?","acidic",10.65
"14273","O=C1(C(C(=O)OCC)CCC1)","CCOC(=O)C1CCC=C1O","InChI=1S/C8H12O3/c1-2-11-8(10)6-4-3-5-7(6)9/h5-6,9H,2-4H2,1H3","SKQJBSFFGADWST-UHFFFAOYSA-N","?",,"spectrophotometric","apparent","?","acidic",10.68
"16596","ClC2(=CC=C(C(C#N)C1(=CC=C([N+](=O)[O-])C=C1))C=C2)","N#CC(C1C=CC(=CC=1)[N+]([O-])=O)C1C=CC(Cl)=CC=1","InChI=1S/C14H9ClN2O2/c15-12-5-1-10(2-6-12)14(9-16)11-3-7-13(8-4-11)17(18)19/h1-8,14H","ITIBRNGRTMJAEN-UHFFFAOYSA-N","?","25","spectrophotometric","a1/apparent","?","acidic",10.7
"17533","ON=CNO","ONCN=O","InChI=1S/CH4N2O2/c4-2-1-3-5/h2,4H,1H2","STEXHDFRCHYECK-UHFFFAOYSA-N","?","20","potentiometric","a1/apparent","?","acidic",10.7
"14827","S(=O)(=O)([O-])C1(=C(OC)C=CC(=C1)C(=CC(=O)C2(=CC=C(S(=O)(=O)[O-])C=C2))CC(=O)C3(=CC=C(S(=O)(=O)[O-])C=C3))","COC1C=CC(=CC=1S(O)(=O)=O)C(C=C(O)C1C=CC(=CC=1)S(O)(=O)=O)=CC(=O)C1C=CC(=CC=1)S(O)(=O)=O","InChI=1S/C24H20O12S3/c1-36-23-11-6-17(14-24(23)39(33,34)35)18(12-21(25)15-2-7-19(8-3-15)37(27,28)29)13-22(26)16-4-9-20(10-5-16)38(30,31)32/h2-14,25H,1H3,(H,27,28,29)(H,30,31,32)(H,33,34,35)","PGVIZNIQPMDAIW-UHFFFAOYSA-N","?","25","spectrophotometric","a1/apparent","-CH2COAr","acidic",10.71
"17274","N=1(NC=NC=1N)","NC1N=CNN=1","InChI=1S/C2H4N4/c3-2-4-1-5-6-2/h1H,(H3,3,4,5,6)","KLSJWNVTNUYHDU-UHFFFAOYSA-N","?","25",,"a2/apparent","?","acidic",10.72
"17611","OB(O)CCCC","CCCCB(O)O","InChI=1S/C4H11BO2/c1-2-3-4-5(6)7/h6-7H,2-4H2,1H3","QPKFVRWIISEVCW-UHFFFAOYSA-N","?",,,"thermodynamic","?","acidic",10.74
"13714","S=C(NC1(=CC=C([N+](=O)[O-])C=C1))N","NC(=S)NC1C=CC(=CC=1)[N+]([O-])=O","InChI=1S/C7H7N3O2S/c8-7(13)9-5-1-3-6(4-2-5)10(11)12/h1-4H,(H3,8,9,13)","BLYAANPIHFKKMQ-UHFFFAOYSA-N","?","25","spectrophotometric","a1/apparent","?","acidic",10.75
"15120","S=C(NC1(=CC=C(F)C=C1))C2(=CC=CC=C2)","FC1C=CC(=CC=1)NC(=S)C1C=CC=CC=1","InChI=1S/C13H10FNS/c14-11-6-8-12(9-7-11)15-13(16)10-4-2-1-3-5-10/h1-9H,(H,15,16)","ZWHTXUYFMRFIAO-UHFFFAOYSA-N","?",,"spectrophotometric","a1/apparent","?","acidic",10.77
"13607","S=CNC1(=CC(=CC=C1)C(F)(F)F)","FC(F)(F)C1C=C(C=CC=1)NC=S","InChI=1S/C8H6F3NS/c9-8(10,11)6-2-1-3-7(4-6)12-5-13/h1-5H,(H,12,13)","SFCUMTFBONTIHO-UHFFFAOYSA-N","?","20","potentiometric","a1/apparent","?","acidic",10.78
"10358","O=C(C(C(=O)C)C)C","CC(C(=C)O)C(=C)O","InChI=1S/C6H10O2/c1-4(5(2)7)6(3)8/h4,7-8H,2-3H2,1H3","BCLVNZCDZZGTEU-UHFFFAOYSA-N","?","22","mean from 4","a1/apparent","C-H","acidic",10.79
"11662","ClC1(=CC=C(NC=S)C=C1)","S=CNC1C=CC(Cl)=CC=1","InChI=1S/C7H6ClNS/c8-6-1-3-7(4-2-6)9-5-10/h1-5H,(H,9,10)","LXNCVESUIUIQBH-UHFFFAOYSA-N","?","20","potentiometric","a1/apparent","?","acidic",10.8
"15128","S=C(NC1(=CC=C(C)C=C1))C2(=CC=CC=C2)","CC1C=CC(=CC=1)NC(=S)C1C=CC=CC=1","InChI=1S/C14H13NS/c1-11-7-9-13(10-8-11)15-14(16)12-5-3-2-4-6-12/h2-10H,1H3,(H,15,16)","RVDURXDDOJZAQB-UHFFFAOYSA-N","?","20","potentiometric","a1/apparent","?","acidic",10.81
"13399","OC1(=C(C=CC=C1)CN2(CCCC2))","OC1C=CC=CC=1CN1CCCC1","InChI=1S/C11H15NO/c13-11-6-2-1-5-10(11)9-12-7-3-4-8-12/h1-2,5-6,13H,3-4,7-9H2","XXWYYQVGCPWDHR-UHFFFAOYSA-N","?","25","mean from 5","a1/apparent","?","acidic",10.83
"16449","OC1(=C(C=CC=C1)C2(NCCNCCCNCCNCC2))","OC1C=CC=CC=1C1CCNCCNCCCNCCN1","InChI=1S/C16H28N4O/c21-16-5-2-1-4-14(16)15-6-9-19-11-10-17-7-3-8-18-12-13-20-15/h1-2,4-5,15,17-21H,3,6-13H2","XRLCYXDLQRKCQT-UHFFFAOYSA-N","?","25","potentiometric","a1/apparent","?","acidic",10.84
"13502","OC1(=C(C(=C(C(C)C)C=C1)C)CC)","CC1C(CC)=C(O)C=CC=1C(C)C","InChI=1S/C12H18O/c1-5-10-9(4)11(8(2)3)6-7-12(10)13/h6-8,13H,5H2,1-4H3","RKCHLKWECWNPIP-UHFFFAOYSA-N","?","20","spectrophotometric","a1/thermodynamic","?","acidic",10.85
"11221","O2(C1(=C(C=CC(=C1)C=NO)OC2))","O=NCC1C=CC2OCOC=2C=1","InChI=1S/C8H7NO3/c10-9-4-6-1-2-7-8(3-6)12-5-11-7/h1-3H,4-5H2","VQCQPDOAQIMFQN-UHFFFAOYSA-N","?","25",,"thermodynamic","?","acidic",10.85
"17054","S=C(NC1(=CC=CC=C1))C2(=CC=CC=C2)","S=C(NC1C=CC=CC=1)C1C=CC=CC=1","InChI=1S/C13H11NS/c15-13(11-7-3-1-4-8-11)14-12-9-5-2-6-10-12/h1-10H,(H,14,15)","BOQKCADLPNLYCZ-UHFFFAOYSA-N","?","20","mean from 2","a1/apparent","?","acidic",10.86
"12749","N2(=CC=1(N=CNC=1C=C2))","C1=NC=CC2NC=NC=21","InChI=1S/C6H5N3/c1-2-7-3-6-5(1)8-4-9-6/h1-4H,(H,8,9)","UBOOKRVGOBKDMM-UHFFFAOYSA-N","?",,"potentiometric","a2/apparent","?","acidic",10.88