"Molecule name","OriginalSmiles","Canonical_QSARr","InChI_Code_QSARr","InChI Key_QSARr","Salt_Solvent (Concatenate)","temp","method","type","group","basicOrAcidic","pKa"
"11405","S1(C(=CC=C1)C=CC(=O)O)","OC(=O)C=CC1=CC=CS1","InChI=1S/C7H6O2S/c8-7(9)4-3-6-2-1-5-10-6/h1-5H,(H,8,9)","KKMZQOIASVGJQE-UHFFFAOYSA-N","?","25",,"a1/thermodynamic","?","acidic",4.25
"12328","O=C(O)CC2(=CC=1(C(=CC=CC=1)C=C2))","OC(O)=CC1=CC2C=CC=CC=2C=C1","InChI=1S/C12H10O2/c13-12(14)8-9-5-6-10-3-1-2-4-11(10)7-9/h1-8,13-14H","NIESIKNHMAXLKP-UHFFFAOYSA-N","?","25","conductometric","a2/thermodynamic","?","acidic",4.26
"10477","O=C(O)CCCC[NH3+]","NCCCC=C(O)O","InChI=1S/C5H11NO2/c6-4-2-1-3-5(7)8/h3,7-8H,1-2,4,6H2","GRKOSGNSRORRHE-UHFFFAOYSA-N","?","24","mean from 3","a1/apparent","COOH","acidic",4.26
"11727","O=C(O)C1(CCC([NH3+])CC1)","NC1CCC(CC1)=C(O)O","InChI=1S/C7H13NO2/c8-6-3-1-5(2-4-6)7(9)10/h6,9-10H,1-4,8H2","LJVZMRFCKAOXKV-UHFFFAOYSA-N","?, ?","25","mean from 2","a/apparent","?, ?","acidic",4.26
"10527","O=C(O)C1(=CC(=CC=C1)C(C)C)","CC(C)C1C=C(C=CC=1)C(O)=O","InChI=1S/C10H12O2/c1-7(2)8-4-3-5-9(6-8)10(11)12/h3-7H,1-2H3,(H,11,12)","DLYVSJDCQZVKMD-UHFFFAOYSA-N","?","25",,"a1/thermodynamic","?","acidic",4.27
"13499","[Si](C1(=CC=C(C(=O)O)C=C1))(C)(C)C","C[Si](C)(C)C1C=CC(=CC=1)C(O)=O","InChI=1S/C10H14O2Si/c1-13(2,3)9-6-4-8(5-7-9)10(11)12/h4-7H,1-3H3,(H,11,12)","GKAWVRLBRQRXAG-UHFFFAOYSA-N","?","25","potentiometric","a/thermodynamic","?","acidic",4.27
"11376","O=C(O)CC1(=CC=CC=C1)","OC(O)=CC1C=CC=CC=1","InChI=1S/C8H8O2/c9-8(10)6-7-4-2-1-3-5-7/h1-6,9-10H","BKUZZZJNRDDTRP-UHFFFAOYSA-N","?","24","mean from 8","a1/apparent","?","acidic",4.27
"10945","O=C(O)C1(=CC(=CC=C1)C2(CC2))","OC(=O)C1=CC(=CC=C1)C1CC1","InChI=1S/C10H10O2/c11-10(12)9-3-1-2-8(6-9)7-4-5-7/h1-3,6-7H,4-5H2,(H,11,12)","RQRAQQYDNSRVRK-UHFFFAOYSA-N","?","25","potentiometric","a1/apparent","?","acidic",4.28
"12269","OC(C1(=CC=C(N)C=C1))=C(C#N)C#N","NC1C=CC(=CC=1)C(O)=C(C#N)C#N","InChI=1S/C10H7N3O/c11-5-8(6-12)10(14)7-1-3-9(13)4-2-7/h1-4,14H,13H2","GIMKYDWAWVRQKI-UHFFFAOYSA-N","?",,,"a/apparent","?","acidic",4.28
"13747","N2(=NC(C1(=CC=CC=C1))=NN2)","C1=CC=CC=C1C1=NNN=N1","InChI=1S/C7H6N4/c1-2-4-6(5-3-1)7-8-10-11-9-7/h1-5H,(H,8,9,10,11)","MARUHZGHZWCEQU-UHFFFAOYSA-N","?, ?","25","conductometric","a1/apparent","N-H, NH","acidic",4.28
"11021","OC2(=CC=C(C1(=NN=NN1))C=C2)","OC1C=CC(=CC=1)C1NN=NN=1","InChI=1S/C7H6N4O/c12-6-3-1-5(2-4-6)7-8-10-11-9-7/h1-4,12H,(H,8,9,10,11)","QOYMNYWFHZFXHR-UHFFFAOYSA-N","?","20","spectrophotometric","a1/apparent","NH","acidic",4.28
"11378","O=C(O)C1(=CC(=CC=C1)C)","CC1C=C(C=CC=1)C(O)=O","InChI=1S/C8H8O2/c1-6-3-2-4-7(5-6)8(9)10/h2-5H,1H3,(H,9,10)","GPSDUZXPYCFOSQ-UHFFFAOYSA-N","?","24","mean from 7","a1/apparent","COOH","acidic",4.28
"16374","O=C(O)C(C2(=CC=C(C1(=CC=CC=C1))C=C2))C(O)CC3(=CC=CC=C3)","OC(O)=C(C(O)CC1C=CC=CC=1)C1C=CC(=CC=1)C1C=CC=CC=1","InChI=1S/C22H20O3/c23-20(15-16-7-3-1-4-8-16)21(22(24)25)19-13-11-18(12-14-19)17-9-5-2-6-10-17/h1-14,20,23-25H,15H2","NMSXZLQJGRWDOA-UHFFFAOYSA-N","?","25","mean from 2","a1/thermodynamic","?","acidic",4.29
"12844","O=C1(OCC(C1CC)=O)","CCC1C(=O)COC=1O","InChI=1S/C6H8O3/c1-2-4-5(7)3-9-6(4)8/h8H,2-3H2,1H3","HLXSLUYCFCFSKU-UHFFFAOYSA-N","?",,"potentiometric","a/apparent","?","acidic",4.29
"11467","O=C(O)C=CC=1(OC=CC=1)","OC(=O)C=CC1=CC=CO1","InChI=1S/C7H6O3/c8-7(9)4-3-6-2-1-5-10-6/h1-5H,(H,8,9)","ZCJLOOJRNPHKAV-UHFFFAOYSA-N","?","25",,"a1/thermodynamic","?","acidic",4.29
"14826","O=C1(OC(C4(OC3(OC(C(C(C(C1C)O)C)OC2(OC(CC(C2O)[N+](O)(C)C)C))(CC3C)C)(C(=C4)C))(C))CC)","CCC1OC(O)=C(C)C(O)C(C)C(OC2OC(C)CC(C2O)[N+](C)(C)O)C2(C)CC(C)C3(O2)OC1(C)C=C3C |t:5|","InChI=1S/C29H49NO9/c1-11-21-27(7)13-15(2)29(38-27)16(3)14-28(8,39-29)24(18(5)22(31)19(6)25(33)36-21)37-26-23(32)20(30(9,10)34)12-17(4)35-26/h13,16-18,20-24,26,31-32,34H,11-12,14H2,1-10H3/p+1/b25-19-","RDJWSNSBNOHODQ-PLRJNAJWSA-O","?",,"potentiometric","a/apparent","?","acidic",4.3
"11307","O=C(N)C(NC=O)CCC(=O)O","NC(O)C(CC=C(O)O)=NC=O","InChI=1S/C6H10N2O4/c7-6(12)4(8-3-9)1-2-5(10)11/h2-3,6,10-12H,1,7H2","DZAFGKRHAGRCJV-UHFFFAOYSA-N","?",,"potentiometric","a/apparent","COOH","acidic",4.3
"11881","S=C(S)N(C(C)C)C(C)C","CC(C)N(C(C)C)C(S)=S","InChI=1S/C7H15NS2/c1-5(2)8(6(3)4)7(9)10/h5-6H,1-4H3,(H,9,10)","GWXMDJKGVWQLBZ-UHFFFAOYSA-N","?","23",,"a1/apparent","S-H","acidic",4.3
"12462","O=C(N1(CCC2(=NOC(=C2(CC1))O)))C","C=C(O)N1CCC2C(CC1)=NOC=2O","InChI=1S/C9H12N2O3/c1-6(12)11-4-2-7-8(3-5-11)10-14-9(7)13/h12-13H,1-5H2","MUIPFLOIMCNPKB-UHFFFAOYSA-N","?","25","potentiometric","a1/apparent","?","acidic",4.3
"10524","O=C(O)C1(=CC=C(C(C)C)C=C1)","CC(C)C1C=CC(=CC=1)C(O)=O","InChI=1S/C10H12O2/c1-7(2)8-3-5-9(6-4-8)10(11)12/h3-7H,1-2H3,(H,11,12)","CKMXAIVXVKGGFM-UHFFFAOYSA-N","?","25","mean from 2","apparent","?","acidic",4.31
"11464","O=C(O)C1(=C(CC1)COC)","COCC1CCC=1C(O)=O","InChI=1S/C7H10O3/c1-10-4-5-2-3-6(5)7(8)9/h2-4H2,1H3,(H,8,9)","CVDMMBBFIHXZFU-UHFFFAOYSA-N","?","25",,"a1/apparent","CO2H","acidic",4.31
"13528","O=C(O)C=CC1(=CC=C(OC)C=C1)","COC1C=CC(C=CC(O)=O)=CC=1","InChI=1S/C10H10O3/c1-13-9-5-2-8(3-6-9)4-7-10(11)12/h2-7H,1H3,(H,11,12)","AFDXODALSZRGIH-UHFFFAOYSA-N","?, ?","25",,"apparent","?, ?","acidic",4.3149999999999995
"15209","S(C(C1(=CC=CC=C1))(C2(=CC=CC=C2))C3(=CC=CC=C3))CC(=O)O","OC(O)=CSC(C1C=CC=CC=1)(C1C=CC=CC=1)C1C=CC=CC=1","InChI=1S/C21H18O2S/c22-20(23)16-24-21(17-10-4-1-5-11-17,18-12-6-2-7-13-18)19-14-8-3-9-15-19/h1-16,22-23H","QIQGKXMIHZNLBZ-UHFFFAOYSA-N","?","25","potentiometric","thermodynamic","?","acidic",4.32
"14243","O=C(O)C1(=CC(O)=C(C)C=C1)","CC1C=CC(=CC=1O)C(O)=O","InChI=1S/C8H8O3/c1-5-2-3-6(8(10)11)4-7(5)9/h2-4,9H,1H3,(H,10,11)","ZQLCWPXBHUALQC-UHFFFAOYSA-N","?","20","potentiometric","a/thermodynamic","?","acidic",4.32
"13377","O=C(O)C=1(NC=2(C=CC=CC=2(C=1C)))","CC1=C(NC2C=CC=CC=21)C(O)=O","InChI=1S/C10H9NO2/c1-6-7-4-2-3-5-8(7)11-9(6)10(12)13/h2-5,11H,1H3,(H,12,13)","NCXGWFIXUJHVLI-UHFFFAOYSA-N","?","25",,"apparent","?","acidic",4.33
"12207","O=C(O)CCCC[N+]1(CCCCC1)(C)","C[N+]1(CCCC=C(O)O)CCCCC1","InChI=1S/C11H21NO2/c1-12(8-4-2-5-9-12)10-6-3-7-11(13)14/h7H,2-6,8-10H2,1H3,(H-,13,14)/p+1","YMJVAXPRWINBNQ-UHFFFAOYSA-O","?","25",,"a1/apparent","?","acidic",4.33
"17327","O=C(O)CC=C","C=CC=C(O)O","InChI=1S/C4H6O2/c1-2-3-4(5)6/h2-3,5-6H,1H2","DMRQNVSXQIVTKL-UHFFFAOYSA-N","?","21","mean from 3","a1/apparent","?","acidic",4.33
"11406","S1(C(=CC=C1)CCC(=O)O)","OC(O)=CCC1=CC=CS1","InChI=1S/C7H8O2S/c8-7(9)4-3-6-2-1-5-10-6/h1-2,4-5,8-9H,3H2","FQYRFRMBFVKMEP-UHFFFAOYSA-N","?","25",,"a1/thermodynamic","?","acidic",4.34
"15620","O=C1(NC(=O)CCC1(C(=O)OCC)CCC(=O)O)","CCOC(=O)C1(CC=C(O)O)CCC(O)=NC1=O","InChI=1S/C11H15NO6/c1-2-18-10(17)11(6-4-8(14)15)5-3-7(13)12-9(11)16/h4,14-15H,2-3,5-6H2,1H3,(H,12,13,16)","RURSZIUGISDAQF-UHFFFAOYSA-N","?",,,"a/apparent","?","acidic",4.35
"16070","O=C(O)C(C2(=CC=1(C(=CC(OC)=CC=1)C=C2)))C","CC(C1C=CC2C=C(C=CC=2C=1)OC)=C(O)O","InChI=1S/C14H14O3/c1-9(14(15)16)10-3-4-12-8-13(17-2)6-5-11(12)7-10/h3-8,15-16H,1-2H3","BDFQNKVBBIUOFN-UHFFFAOYSA-N","?, ?","25","mean from 2","a1/apparent","COOH, ?","acidic",4.35
"10237","O=C(O)C=1(NC=CC=1)","OC(=O)C1=CC=CN1","InChI=1S/C5H5NO2/c7-5(8)4-2-1-3-6-4/h1-3,6H,(H,7,8)","WRHZVMBBRYBTKZ-UHFFFAOYSA-N","?","20","mean from 5","a1/thermodynamic","?","acidic",4.35
"10597","O=C(O)C1(=CC(=C(OC)C=C1)C)","CC1C=C(C=CC=1OC)C(O)=O","InChI=1S/C9H10O3/c1-6-5-7(9(10)11)3-4-8(6)12-2/h3-5H,1-2H3,(H,10,11)","DNMUMZLKDOZMEY-UHFFFAOYSA-N","?","20","potentiometric","a/thermodynamic","?","acidic",4.35
"12156","O=[N+]([O-])C1(=CC([N+](C)(C)C)=C(O)C=C1)","C[N+](C)(C)C1C=C(C=CC=1O)[N+]([O-])=O","InChI=1S/C9H12N2O3/c1-11(2,3)8-6-7(10(13)14)4-5-9(8)12/h4-6H,1-3H3/p+1","NUQYKOQFSMSEKV-UHFFFAOYSA-O","?","25",,"a1/apparent","?","acidic",4.35
"13486","O=C(O)C1(=CC=C(C(C)(C)C)C=C1)","CC(C)(C)C1C=CC(=CC=1)C(O)=O","InChI=1S/C11H14O2/c1-11(2,3)9-6-4-8(5-7-9)10(12)13/h4-7H,1-3H3,(H,12,13)","KDVYCTOWXSLNNI-UHFFFAOYSA-N","?","25","potentiometric","a1/thermodynamic","COOH","acidic",4.36
"13554","O=C1(NCC(=O)NC1CCC(=O)O)","OC(O)=CCC1=NC(O)=CNC1O","InChI=1S/C7H10N2O4/c10-5-3-8-7(13)4(9-5)1-2-6(11)12/h2-3,7-8,10-13H,1H2","YSJXJGNZACLPSG-UHFFFAOYSA-N","?","25","potentiometric","a/apparent","?","acidic",4.36
"14056","O=C(O)CCOOC(C)(C)C","CC(C)(C)OOCC=C(O)O","InChI=1S/C7H14O4/c1-7(2,3)11-10-5-4-6(8)9/h4,8-9H,5H2,1-3H3","DQRLAQWMYYIXAF-UHFFFAOYSA-N","?","25","mean from 2","a1/apparent","COO-H","acidic",4.36
"11468","O=C(O)CCC=1(OC=CC=1)","OC(O)=CCC1=CC=CO1","InChI=1S/C7H8O3/c8-7(9)4-3-6-2-1-5-10-6/h1-2,4-5,8-9H,3H2","FHEBFMRYHRVJSL-UHFFFAOYSA-N","?","25",,"a1/thermodynamic","?","acidic",4.36
"10595","O=C(O)CC1(=CC=C(OC)C=C1)","COC1C=CC(C=C(O)O)=CC=1","InChI=1S/C9H10O3/c1-12-8-4-2-7(3-5-8)6-9(10)11/h2-6,10-11H,1H3","XSRPSDLUOOSLHM-UHFFFAOYSA-N","?","25","conductometric","a1/thermodynamic","?","acidic",4.36
"10975","O=C(O)CC1(O)(C2(C=CC(C1)C2))","OC(O)=CC1(O)CC2CC1C=C2","InChI=1S/C9H12O3/c10-8(11)5-9(12)4-6-1-2-7(9)3-6/h1-2,5-7,10-12H,3-4H2","GMCYSUURZYGVOZ-UHFFFAOYSA-N","?, ?","25","potentiometric","a1/apparent","?, ?","acidic",4.36
"14372","O[N+]1(=C(C=C(N(C)C)C=C1)C)","CC1C=C(C=C[N+]=1O)N(C)C","InChI=1S/C8H13N2O/c1-7-6-8(9(2)3)4-5-10(7)11/h4-6,11H,1-3H3/q+1","KTMJSBMTKVPYNZ-UHFFFAOYSA-N","?",,"spectrophotometric","a/apparent","?","acidic",4.37
"11380","O=C(O)C1(=CC=C(C)C=C1)","CC1=CC=C(C=C1)C(O)=O","InChI=1S/C8H8O2/c1-6-2-4-7(5-3-6)8(9)10/h2-5H,1H3,(H,9,10)","LPNBBFKOUUSUDB-UHFFFAOYSA-N","?","24","mean from 7","a1/apparent","COOH","acidic",4.37
"13516","O=C(O)C=CC1(=CC(OC)=CC=C1)","COC1C=C(C=CC=1)C=CC(O)=O","InChI=1S/C10H10O3/c1-13-9-4-2-3-8(7-9)5-6-10(11)12/h2-7H,1H3,(H,11,12)","LZPNXAULYJPXEH-UHFFFAOYSA-N","?","25","conductometric","1/thermodynamic","?","acidic",4.38
"14247","O=C(O)C(O)C1(=CC=CC=C1)","OC(O)=C(O)C1C=CC=CC=1","InChI=1S/C8H8O3/c9-7(8(10)11)6-4-2-1-3-5-6/h1-5,9-11H","MBGHHXWAKSEHMA-UHFFFAOYSA-N","?, ?, ?","22","mean from 8","a1/apparent","CO2H, ?, C(OH)O-H","acidic",4.38
"10607","O=C(O)C1(=C(OC)C=C(C)C=C1)","CC1C=CC(=C(C=1)OC)C(O)=O","InChI=1S/C9H10O3/c1-6-3-4-7(9(10)11)8(5-6)12-2/h3-5H,1-2H3,(H,10,11)","SOWDWUPMHVDZGL-UHFFFAOYSA-N","?","20","potentiometric","a/thermodynamic","?","acidic",4.38
"13384","O=C(O)CC=2(C1(=C(C=CC=C1)NC=2))","OC(O)=CC1=CNC2C=CC=CC=21","InChI=1S/C10H9NO2/c12-10(13)5-7-6-11-9-4-2-1-3-8(7)9/h1-6,11-13H","XLJMMNKBXPUJHX-UHFFFAOYSA-N","?","23","mean from 4","a1/apparent","COOH","acidic",4.39
"13534","O=C1(C(=C(C)C(C1)C(C(=O)O)C)C)","CC1C(O)=CC(C(C)=C(O)O)C=1C","InChI=1S/C10H14O3/c1-5-6(2)9(11)4-8(5)7(3)10(12)13/h4,8,11-13H,1-3H3","HXCWEQAWNVVEPP-UHFFFAOYSA-N","?","25","potentiometric","a/apparent","?","acidic",4.4
"16186","O2(C([N+]1(=C(O)N=C(N)C(=C1)C))CC(C2CO)O)","CC1=C[N+](C2CC(O)C(CO)O2)=C(O)N=C1N","InChI=1S/C10H15N3O4/c1-5-3-13(10(16)12-9(5)11)8-2-6(15)7(4-14)17-8/h3,6-8,14-15H,2,4H2,1H3,(H2,11,12,16)/p+1","LUCHPKXVUGJYGU-UHFFFAOYSA-O","?",,"mean from 3","a1/apparent","?","acidic",4.4
"12185","O=C(O)CCC(C#N)C1(=CC=CC=C1)","N#CC(CC=C(O)O)C1C=CC=CC=1","InChI=1S/C11H11NO2/c12-8-10(6-7-11(13)14)9-4-2-1-3-5-9/h1-5,7,10,13-14H,6H2","MEAKJGHTJRXWHC-UHFFFAOYSA-N","?","25","conductometric","1/thermodynamic","?","acidic",4.4
"16079","O=C(O)C2(C1(=NN=NN1CCC(C2)C(C)(C)C))","CC(C)(C)C1CC(C2=NN=NN2CC1)=C(O)O","InChI=1S/C11H18N4O2/c1-11(2,3)7-4-5-15-9(12-13-14-15)8(6-7)10(16)17/h7,16-17H,4-6H2,1-3H3","LPNHEIHKETXPOX-UHFFFAOYSA-N","?",,,"a/apparent","?","acidic",4.4
"16254","O=[N+]([O-])C1(=CC=C(C(C(=O)O)=CC(=C)C)C=C1)","CC(=C)C=C(C(O)=O)C1C=CC(=CC=1)[N+]([O-])=O","InChI=1S/C12H11NO4/c1-8(2)7-11(12(14)15)9-3-5-10(6-4-9)13(16)17/h3-7H,1H2,2H3,(H,14,15)","NUBNWDLQKKAASL-UHFFFAOYSA-N","?",,"potentiometric","a/apparent","?","acidic",4.4
"10007","O=C1(OCC(=C1O)O)","OC1C(=O)OCC=1O","InChI=1S/C4H4O4/c5-2-1-8-4(7)3(2)6/h5-6H,1H2","QGLKIVPNOUPWOW-UHFFFAOYSA-N","?","25","potentiometric","a2/apparent","?","acidic",4.4
"10613","O=C(O)CC(O)C1(=CC=CC=C1)","OC(O)=CC(O)C1C=CC=CC=1","InChI=1S/C9H10O3/c10-8(6-9(11)12)7-4-2-1-3-5-7/h1-6,8,10-12H","NNSNLCIFHDIGMA-UHFFFAOYSA-N","?","18","potentiometric","1/thermodynamic","?","acidic",4.4
"10610","O=C(O)C1(C(C(=O)C)CC=CC1)","C=C(O)C1CC=CCC1=C(O)O","InChI=1S/C9H12O3/c1-6(10)7-4-2-3-5-8(7)9(11)12/h2-3,7,10-12H,1,4-5H2","SBSGQJVXUMWKOU-UHFFFAOYSA-N","?",,,"a/apparent","?","acidic",4.4
"14169","O=C(O)C=1(C=CC=CC=CC=1)","OC(=O)C1C=CC=CC=CC=1 |c:4,6,8,t:10|","InChI=1S/C9H8O2/c10-9(11)8-6-4-2-1-3-5-7-8/h1-7H,(H,10,11)/b2-1-,3-1?,4-2?,5-3-,6-4-,7-5?,8-6?,8-7+","JTSWCHSPSNVWLC-FXPPOMFJSA-N","?",,"potentiometric","a/apparent","?","acidic",4.4
"17059","O=[N+]([O-])C1(=CC(=CC=C1)C2(C(C(=O)O)C2))","[O-][N+](=O)C1=CC(=CC=C1)C1CC1=C(O)O","InChI=1S/C10H9NO4/c12-10(13)9-5-8(9)6-2-1-3-7(4-6)11(14)15/h1-4,8,12-13H,5H2","OLWCLIREWGQYGE-UHFFFAOYSA-N","?","25","potentiometric","a/apparent","?","acidic",4.41
"14171","O=C(O)C1(=CC(=C(C)C=C1)C)","CC1C=CC(=CC=1C)C(O)=O","InChI=1S/C9H10O2/c1-6-3-4-8(9(10)11)5-7(6)2/h3-5H,1-2H3,(H,10,11)","OPVAJFQBSDUNQA-UHFFFAOYSA-N","?","25","conductometric","a/thermodynamic","?","acidic",4.41
"10940","O=C(O)C2(=CC=C(C1(CC1))C=C2)","OC(=O)C1C=CC(=CC=1)C1CC1","InChI=1S/C10H10O2/c11-10(12)9-5-3-8(4-6-9)7-1-2-7/h3-7H,1-2H2,(H,11,12)","GJCRWEAWEDESNZ-UHFFFAOYSA-N","?","25","potentiometric","a1/apparent","?","acidic",4.42
"10520","O=C(O)C=CC1(=CC(=CC=C1)C)","CC1C=C(C=CC=1)C=CC(O)=O","InChI=1S/C10H10O2/c1-8-3-2-4-9(7-8)5-6-10(11)12/h2-7H,1H3,(H,11,12)","JZINNAKNHHQBOS-UHFFFAOYSA-N","?","25",,"apparent","?","acidic",4.44
"14694","O=C(O)CCCCC[N+]1(CCCCC1)(C)","C[N+]1(CCCCC=C(O)O)CCCCC1","InChI=1S/C12H23NO2/c1-13(10-6-3-7-11-13)9-5-2-4-8-12(14)15/h8H,2-7,9-11H2,1H3,(H-,14,15)/p+1","DXTVWLYIEAUFQC-UHFFFAOYSA-O","?","25",,"a1/apparent","?","acidic",4.44
"16066","O=C(O)C2(=CC=C(OCC1(=CC=CC=C1))C=C2)","OC(=O)C1C=CC(=CC=1)OCC1C=CC=CC=1","InChI=1S/C14H12O3/c15-14(16)12-6-8-13(9-7-12)17-10-11-4-2-1-3-5-11/h1-9H,10H2,(H,15,16)","AQSCHALQLXXKKC-UHFFFAOYSA-N","?","25","spectrophotometric","a1/apparent","?","acidic",4.44
"11908","O=C(O)CCCCCC[NH3+]","NCCCCCC=C(O)O","InChI=1S/C7H15NO2/c8-6-4-2-1-3-5-7(9)10/h5,9-10H,1-4,6,8H2","SPZZYOYPRKAYHI-UHFFFAOYSA-N","?","27","mean from 3","a1/apparent","?","acidic",4.44
"11459","O=C(O)CCC1(=COC=C1)","OC(O)=CCC1=COC=C1","InChI=1S/C7H8O3/c8-7(9)2-1-6-3-4-10-5-6/h2-5,8-9H,1H2","CSMFGBOFTIJFKH-UHFFFAOYSA-N","?","25",,"a1/thermodynamic","?","acidic",4.44
"13524","O=C(O)C1(=CC=C(OCC=C)C=C1)","C=CCOC1C=CC(=CC=1)C(O)=O","InChI=1S/C10H10O3/c1-2-7-13-9-5-3-8(4-6-9)10(11)12/h2-6H,1,7H2,(H,11,12)","DYDWKSVZHZNBLO-UHFFFAOYSA-N","?","25","spectrophotometric","a1/apparent","?","acidic",4.45
"17058","O=[N+]([O-])C2(=CC=C(C1(C(C(=O)O)C1))C=C2)","[O-][N+](=O)C1=CC=C(C=C1)C1CC1=C(O)O","InChI=1S/C10H9NO4/c12-10(13)9-5-8(9)6-1-3-7(4-2-6)11(14)15/h1-4,8,12-13H,5H2","IMGADOWVLDZGTJ-UHFFFAOYSA-N","?","25","potentiometric","a/apparent","?","acidic",4.45
"14848","[Br]C1(=CC=C(NC(C#N)=C(C#N)C#N)C=C1)","N#CC(=NC1C=CC(Br)=CC=1)C(C#N)C#N","InChI=1S/C11H5BrN4/c12-9-1-3-10(4-2-9)16-11(7-15)8(5-13)6-14/h1-4,8H","SANRSGURADXUHZ-UHFFFAOYSA-N","?","25","spectrophotometric","a1/apparent","?","acidic",4.45
"13154","ON=NC1(=NC=NN1C)","CN1N=CN=C1NN=O","InChI=1S/C3H5N5O/c1-8-3(6-7-9)4-2-5-8/h2H,1H3,(H,4,5,6,9)","YLDPSOKZVOUEHG-UHFFFAOYSA-N","?","25","spectrophotometric","a1/apparent","O-H","acidic",4.45
"11403","S1(C=C(CCC(=O)O)C=C1)","OC(O)=CCC1=CSC=C1","InChI=1S/C7H8O2S/c8-7(9)2-1-6-3-4-10-5-6/h2-5,8-9H,1H2","HROLLJGAIIWUEP-UHFFFAOYSA-N","?","25",,"a1/thermodynamic","?","acidic",4.45
"14263","O=C(O)C1(=CC=C(OC)C=C1)","COC1C=CC(=CC=1)C(O)=O","InChI=1S/C8H8O3/c1-11-7-4-2-6(3-5-7)8(9)10/h2-5H,1H3,(H,9,10)","ZEYHEAKUIGZSGI-UHFFFAOYSA-N","?","22","mean from 8","a1/apparent","COOH","acidic",4.45
"15044","O=C(O)CC2(=CC=C(C1(=CC=CC=C1))C=C2)","OC(O)=CC1C=CC(=CC=1)C1C=CC=CC=1","InChI=1S/C14H12O2/c15-14(16)10-11-6-8-13(9-7-11)12-4-2-1-3-5-12/h1-10,15-16H","OKYQAJDEKYOEHT-UHFFFAOYSA-N","?","25",,"a1/apparent","COOH","acidic",4.46
"13632","[Br]C1(=CC([N+](=O)[O-])=C(O)C(=C1)C=O)","[O-][N+](=O)C1C=C(Br)C=C(C=O)C=1O","InChI=1S/C7H4BrNO4/c8-5-1-4(3-10)7(11)6(2-5)9(12)13/h1-3,11H","YEYPSUQQZNDKDE-UHFFFAOYSA-N","?","25","spectrophotometric","a1/apparent","?","acidic",4.46
"13630","ClC1(=CC([N+](=O)[O-])=C(O)C(=C1)C=O)","[O-][N+](=O)C1C=C(Cl)C=C(C=O)C=1O","InChI=1S/C7H4ClNO4/c8-5-1-4(3-10)7(11)6(2-5)9(12)13/h1-3,11H","YSDCZOBSHGDCCI-UHFFFAOYSA-N","?","25","spectrophotometric","a1/apparent","?","acidic",4.46
"16156","O=C(O)C2(=CC=C(N=CC1(=CC=CC=C1))C=C2)","OC(=O)C1C=CC(=CC=1)N=CC1C=CC=CC=1","InChI=1S/C14H11NO2/c16-14(17)12-6-8-13(9-7-12)15-10-11-4-2-1-3-5-11/h1-10H,(H,16,17)","MREPJQZHXSDMKL-UHFFFAOYSA-N","?","20","spectrophotometric","a2/apparent","N=CH","acidic",4.47
"12107","O=C(O)C1(=CC=C(OCC(C)C)C=C1)","CC(C)COC1C=CC(=CC=1)C(O)=O","InChI=1S/C11H14O3/c1-8(2)7-14-10-5-3-9(4-6-10)11(12)13/h3-6,8H,7H2,1-2H3,(H,12,13)","WTIHDAFXKHTFEG-UHFFFAOYSA-N","?","25","spectrophotometric","a1/apparent","?","acidic",4.48
"16064","O=C(O)CCC(=O)C=1(C=2(C(C=CC=1)=CC=CC=2))","OC(O)=CCC(=O)C1=CC=CC2=CC=CC=C21","InChI=1S/C14H12O3/c15-13(8-9-14(16)17)12-7-3-5-10-4-1-2-6-11(10)12/h1-7,9,16-17H,8H2","MHBKEGYIVVSZEL-UHFFFAOYSA-N","?","25","potentiometric","apparent","?","acidic",4.48
"14623","O=C(O)C1(=CC=C(OCCCCC)C=C1)","CCCCCOC1C=CC(=CC=1)C(O)=O","InChI=1S/C12H16O3/c1-2-3-4-9-15-11-7-5-10(6-8-11)12(13)14/h5-8H,2-4,9H2,1H3,(H,13,14)","OZPPUPJQRJYTNY-UHFFFAOYSA-N","?","25","spectrophotometric","a1/apparent","?","acidic",4.49
"10523","O=C(O)C=CC1(=C(C=CC=C1)C)","CC1C=CC=CC=1C=CC(O)=O","InChI=1S/C10H10O2/c1-8-4-2-3-5-9(8)6-7-10(11)12/h2-7H,1H3,(H,11,12)","RSWBWHPZXKLUEX-UHFFFAOYSA-N","?","25",,"apparent","?","acidic",4.5
"13156","OC1(=[NH+]C(=NC(=N1)N)N)","NC1=NC(O)=NC(N)=N1","InChI=1S/C3H5N5O/c4-1-6-2(5)8-3(9)7-1/h(H5,4,5,6,7,8,9)","MASBWURJQFFLOO-UHFFFAOYSA-N","?",,"spectrophotometric","a1/apparent","?","acidic",4.5
"17636","O=C(O)CC(O)C","CC(O)C=C(O)O","InChI=1S/C4H8O3/c1-3(5)2-4(6)7/h2-3,5-7H,1H3","XWDUDNLIZATELJ-UHFFFAOYSA-N","?","25","mean from 3","a1/apparent","COOH","acidic",4.5
"17767","O=C1(CC(=O)CC1)","OC1CC(=O)CC=1","InChI=1S/C5H6O2/c6-4-1-2-5(7)3-4/h1,6H,2-3H2","ITNRBGQNXSMADE-UHFFFAOYSA-N","?",,,"a/apparent","?","acidic",4.5
"14265","O=C(O)C1(=C(CCC1)COC)","COCC1CCCC=1C(O)=O","InChI=1S/C8H12O3/c1-11-5-6-3-2-4-7(6)8(9)10/h2-5H2,1H3,(H,9,10)","GDKZKBURHPGMRW-UHFFFAOYSA-N","?","25",,"a1/apparent","CO2H","acidic",4.5
"14121","O=C(O)CCCCCCC[NH3+]","NCCCCCCC=C(O)O","InChI=1S/C8H17NO2/c9-7-5-3-1-2-4-6-8(10)11/h6,10-11H,1-5,7,9H2","JMDWQVDCZAUJQQ-UHFFFAOYSA-N","?","27","mean from 3","a1/apparent","?","acidic",4.5
"15757","[70SH]C(C1(=CC=CC=C1))=CC(=O)NC2(=CC=CC=C2)","O=C(C=C(S)C1C=CC=CC=1)NC1C=CC=CC=1","InChI=1S/C15H13NOS/c17-15(16-13-9-5-2-6-10-13)11-14(18)12-7-3-1-4-8-12/h1-11,18H,(H,16,17)","PMCYKOJLNSOVTI-UHFFFAOYSA-N","?","22","spectrophotometric","a1/apparent","?","acidic",4.51
"14006","OC2(=[NH+]C=1(N=CNC=1C(=N2)N))","NC1N=C(O)N=C2N=CNC2=1","InChI=1S/C5H5N5O/c6-3-2-4(8-1-7-2)10-5(11)9-3/h1H,(H4,6,7,8,9,10,11)","DRAVOWXCEBXPTN-UHFFFAOYSA-N","?","20","spectrophotometric","a1/apparent","?","acidic",4.51
"13055","O=C(O)C=1(N(C=CC=1)C)","CN1C=CC=C1C(O)=O","InChI=1S/C6H7NO2/c1-7-4-2-3-5(7)6(8)9/h2-4H,1H3,(H,8,9)","ILAOVOOZLVGAJF-UHFFFAOYSA-N","?","25",,"a1/thermodynamic","?","acidic",4.51
"10977","O=C(O)CC1(O)(C2(CC(C1)CC2))","OC(O)=CC1(O)CC2CC1CC2","InChI=1S/C9H14O3/c10-8(11)5-9(12)4-6-1-2-7(9)3-6/h5-7,10-12H,1-4H2","VCJFRUWPXIZGHK-UHFFFAOYSA-N","?, ?","25","potentiometric","a1/apparent","?, ?","acidic",4.515000000000001
"15052","O=C(O)C2(=CC=C(OC1(=CC=CC=C1))C=C2)","OC(=O)C1C=CC(=CC=1)OC1C=CC=CC=1","InChI=1S/C13H10O3/c14-13(15)10-6-8-12(9-7-10)16-11-4-2-1-3-5-11/h1-9H,(H,14,15)","RYAQFHLUEMJOMF-UHFFFAOYSA-N","?","25","potentiometric","a1/thermodynamic","?","acidic",4.52
"10341","O=C(O)CC=CCC","CCC=CC=C(O)O","InChI=1S/C6H10O2/c1-2-3-4-5-6(7)8/h3-5,7-8H,2H2,1H3","WJJFZQJZLVWTAM-UHFFFAOYSA-N","?","25","conductometric","apparent","?","acidic",4.52
"13462","ClC1(=C(Cl)C(Cl)=C2(NN=NC2(=C1Cl)))","ClC1=C2N=NNC2=C(Cl)C(Cl)=C1Cl","InChI=1S/C6HCl4N3/c7-1-2(8)4(10)6-5(3(1)9)11-13-12-6/h(H,11,12,13)","ZNJPBNVCQVDOJX-UHFFFAOYSA-N","?",,,"a/apparent","?","acidic",4.52