"Molecule name","OriginalSmiles","Canonical_QSARr","InChI_Code_QSARr","InChI Key_QSARr","Salt_Solvent (Concatenate)","temp","method","type","group","basicOrAcidic","pKa"
"15177","S(=O)(=O)([O-])C=2(C1(=C(NN=C1)C(=NO)C(C=2)=O))","OS(=O)(=O)C1=CC(=O)C(N=O)C2NN=CC1=2","InChI=1S/C7H5N3O5S/c11-4-1-5(16(13,14)15)3-2-8-9-6(3)7(4)10-12/h1-2,7H,(H,8,9)(H,13,14,15)","VPDKMNVRPILESR-UHFFFAOYSA-N","?","25","potentiometric","a/apparent","?","acidic",5.85
"13245","O=C2(OC1(=C(C=CC(=C1)O)C(=C2)O))","OC1=CC2OC(=O)C=C(O)C=2C=C1","InChI=1S/C9H6O4/c10-5-1-2-6-7(11)4-9(12)13-8(6)3-5/h1-4,10-11H","CYSRKZFPSNZSCS-UHFFFAOYSA-N","?, ?","20","potentiometric","a1/apparent","H of 4-OH, H of 7-OH","acidic",5.869999999999999
"16126","O=[N+]([O-])C1(=CC(=C(O)C=C1)C[NH+]2(CCCCC2))","[O-][N+](=O)C1C=C(CN2CCCCC2)C(O)=CC=1","InChI=1S/C12H16N2O3/c15-12-5-4-11(14(16)17)8-10(12)9-13-6-2-1-3-7-13/h4-5,8,15H,1-3,6-7,9H2","VMLGUVWUUWNDNF-UHFFFAOYSA-N","?","25","spectrophotometric","a1/apparent","OH","acidic",5.88
"13374","O=C(O)C=2(C1(=C(C=CC=C1)NC=2C))","CC1NC2C=CC=CC=2C=1C(O)=O","InChI=1S/C10H9NO2/c1-6-9(10(12)13)7-4-2-3-5-8(7)11-6/h2-5,11H,1H3,(H,12,13)","BHFYJMNOBRLYSC-UHFFFAOYSA-N","?","25",,"apparent","?","acidic",5.89
"13556","O=[N+]([O-])C1(=CC=C(C[N+](=O)[O-])C=C1)","[O-][N+](=O)C1C=CC(C[N+]([O-])=O)=CC=1","InChI=1S/C7H6N2O4/c10-8(11)5-6-1-3-7(4-2-6)9(12)13/h1-4H,5H2","MQQSJSOCNUOYBX-UHFFFAOYSA-N","?","25","spectrophotometric","a1/apparent","?","acidic",5.89
"12250","O=C(ONC=O)C=CC1(=CC=CC=C1)","O=C(C=CC1C=CC=CC=1)ONC=O","InChI=1S/C10H9NO3/c12-8-11-14-10(13)7-6-9-4-2-1-3-5-9/h1-8H,(H,11,12)","JJULRMOOMUHVRU-UHFFFAOYSA-N","?","25","potentiometric","a1/apparent","?","acidic",5.9
"15500","O=C2(C1(=C(C=CC=C1)C(C2CC3(=CC=CC=C3))=O))","OC1=C(CC2C=CC=CC=2)C(=O)C2C=CC=CC=21","InChI=1S/C16H12O2/c17-15-12-8-4-5-9-13(12)16(18)14(15)10-11-6-2-1-3-7-11/h1-9,17H,10H2","UELMZQBBCUKZLK-UHFFFAOYSA-N","?","25","spectrophotometric","a1/apparent","?","acidic",5.9
"16560","OC=1(N(N=C(C=1CC)C2(=CC=CC=C2))C3(CC[NH+](C)CC3))","CN1CCC(CC1)N1N=C(C(CC)=C1O)C1C=CC=CC=1","InChI=1S/C17H23N3O/c1-3-15-16(13-7-5-4-6-8-13)18-20(17(15)21)14-9-11-19(2)12-10-14/h4-8,14,21H,3,9-12H2,1-2H3","CLNZYZDSKUHCHU-UHFFFAOYSA-N","?",,"potentiometric","a1/apparent","?","acidic",5.9
"13174","ClC=1(N=CNC=1[N+](=O)[O-])","[O-][N+](=O)C1NC=NC=1Cl","InChI=1S/C3H2ClN3O2/c4-2-3(7(8)9)6-1-5-2/h1H,(H,5,6)","ZJYZSKPVPVBBFB-UHFFFAOYSA-N","?","25","potentiometric","a1/apparent","?","acidic",5.9
"12824","SC=1(C(=O)C=CC=CC=1)","O=C1C=CC=CC=C1S","InChI=1S/C7H6OS/c8-6-4-2-1-3-5-7(6)9/h1-5H,(H,8,9)","DNBQDZRBEGFUEA-UHFFFAOYSA-N","?","25","potentiometric","a/apparent","?","acidic",5.9
"15170","S(=O)(=O)(NC1(=NC=CC=N1))C2(=CC=CC=C2)","O=S(=O)(NC1N=CC=CN=1)C1C=CC=CC=1","InChI=1S/C10H9N3O2S/c14-16(15,9-5-2-1-3-6-9)13-10-11-7-4-8-12-10/h1-8H,(H,11,12,13)","HLBLNLYCFFWMFF-UHFFFAOYSA-N","?","20","potentiometric","a1/apparent","?","acidic",5.91
"10301","N1(=NNC(=N1)N(C)C)","CN(C)C1NN=NN=1","InChI=1S/C3H7N5/c1-8(2)3-4-6-7-5-3/h1-2H3,(H,4,5,6,7)","XUYRDKGAGMTGRC-UHFFFAOYSA-N","?","25","potentiometric","a/apparent","?","acidic",5.92
"14705","ClC1(=C(O)C(=CC(=C1)Cl)C[NH+](CC)CC)","CCN(CC1C=C(Cl)C=C(Cl)C=1O)CC","InChI=1S/C11H15Cl2NO/c1-3-14(4-2)7-8-5-9(12)6-10(13)11(8)15/h5-6,15H,3-4,7H2,1-2H3","LAGOLYUCONSUQY-UHFFFAOYSA-N","?","25","spectrophotometric","a1/apparent","OH","acidic",5.95
"11423","[Br]C1(=C(O)C(=O)C=CC=C1)","OC1C(=O)C=CC=CC=1Br","InChI=1S/C7H5BrO2/c8-5-3-1-2-4-6(9)7(5)10/h1-4H,(H,9,10)","ZWZVMMDEDBKUEC-UHFFFAOYSA-N","?","25","potentiometric","a/apparent","?","acidic",5.96
"15149","ClC1(=C(O)C(=CC(=C1)Cl)C[NH+]2(CCCCC2))","OC1=C(CN2CCCCC2)C=C(Cl)C=C1Cl","InChI=1S/C12H15Cl2NO/c13-10-6-9(12(16)11(14)7-10)8-15-4-2-1-3-5-15/h6-7,16H,1-5,8H2","QBBRFUFZUZSXIO-UHFFFAOYSA-N","?","25","spectrophotometric","a1/apparent","OH","acidic",5.97
"15591","FC(F)(F)OC1(=CC=C(NN=C(C#N)C#N)C=C1)","N#CC(C#N)N=NC1C=CC(=CC=1)OC(F)(F)F","InChI=1S/C10H5F3N4O/c11-10(12,13)18-9-3-1-7(2-4-9)16-17-8(5-14)6-15/h1-4,8H","WCAZOGMPEZCHPN-UHFFFAOYSA-N","?","25","mean from 2","a1/apparent","?","acidic",6.0
"16276","O=[N+]([O-])C1(=C(NN=C(C#N)C#N)C=CC(=C1)C)","CC1=CC(=C(C=C1)N=NC(C#N)C#N)[N+]([O-])=O","InChI=1S/C10H7N5O2/c1-7-2-3-9(10(4-7)15(16)17)14-13-8(5-11)6-12/h2-4,8H,1H3","JHYHIEBZIXAERA-UHFFFAOYSA-N","?","25","mean from 2","a1/apparent","?","acidic",6.0
"16580","S(=O)(=O)(NC1(=NC(=C(C)C=N1)C))C2(=CC=C(N)C=C2)","CC1C=NC(NS(=O)(=O)C2C=CC(N)=CC=2)=NC=1C","InChI=1S/C12H14N4O2S/c1-8-7-14-12(15-9(8)2)16-19(17,18)11-5-3-10(13)4-6-11/h3-7H,13H2,1-2H3,(H,14,15,16)","IHEAINLLXOBUEW-UHFFFAOYSA-N","?","25","potentiometric","a/apparent","?","acidic",6.0
"16286","O=C2(C1(=C(C=CC=C1)C(C=O)C3(=C2C=CC=C3)))","OC=C1C2C=CC=CC=2C(=O)C2C=CC=CC=21","InChI=1S/C15H10O2/c16-9-14-10-5-1-3-7-12(10)15(17)13-8-4-2-6-11(13)14/h1-9,16H","VMWZKKKGVXEJOT-UHFFFAOYSA-N","?","24","potentiometric","a1/apparent","?","acidic",6.0
"15259","ClC4(=CC=3(N=C(C=1(C(=O)OC=2(C=C(O)C=CC=2(C=1C#N))))OC=3C=C4))","N#CC1=C(C(=O)OC2C=C(O)C=CC=21)C1=NC2C=C(Cl)C=CC=2O1","InChI=1S/C17H7ClN2O4/c18-8-1-4-13-12(5-8)20-16(23-13)15-11(7-19)10-3-2-9(21)6-14(10)24-17(15)22/h1-6,21H","MEQPFAHGQRHYMD-UHFFFAOYSA-N","?","22",,"a1/thermodynamic","OH","acidic",6.0
"11791","O=C1(OC(CC)(C)C(N1)=O)","CCC1(C)OC(=O)NC1=O","InChI=1S/C6H9NO3/c1-3-6(2)4(8)7-5(9)10-6/h3H2,1-2H3,(H,7,8,9)","MGHNWMRNFGYJKE-UHFFFAOYSA-N","?","24","mean from 2","a/apparent","?","acidic",6.0
"16975","O=C1(N(C(=O)C=2(N(C)C(NC=2(N1C))=O))C)","CN1C(=O)C2C(=NC(=O)N2C)N(C)C1=O","InChI=1S/C8H10N4O3/c1-10-4-5(9-7(10)14)11(2)8(15)12(3)6(4)13/h4H,1-3H3","BMPZJVFJRYVRJD-UHFFFAOYSA-N","?",,"spectrophotometric","a/apparent","?","acidic",6.0
"11219","O=C1(N(O)C(=O)C2(C1CCCC2))","OC1=C2CCCCC2C(=O)N1O","InChI=1S/C8H11NO3/c10-7-5-3-1-2-4-6(5)8(11)9(7)12/h5,11-12H,1-4H2","WMIGTORYNQFHKZ-UHFFFAOYSA-N","?",,,"a/apparent","?","acidic",6.0
"12123","ClC1(=CC(NN=C(C#N)C#N)=CC=C1)","N#CC(C#N)N=NC1C=C(Cl)C=CC=1","InChI=1S/C9H5ClN4/c10-7-2-1-3-8(4-7)13-14-9(5-11)6-12/h1-4,9H","ATTCVKKCGVZURR-UHFFFAOYSA-N","?","25","mean from 2","a1/apparent","?","acidic",6.0
"14626","N#CC(NC1(CCCCC1))=C(C#N)C#N","N#CC(=NC1CCCCC1)C(C#N)C#N","InChI=1S/C11H12N4/c12-6-9(7-13)11(8-14)15-10-4-2-1-3-5-10/h9-10H,1-5H2","QXFJGZWXWOHZIU-UHFFFAOYSA-N","?","25","spectrophotometric","a1/apparent","?","acidic",6.01
"16479","ClC1(=C(OC)C(=C(O)C(=C1)Cl)C(=O)NC2(CC[NH+](C)CC2))","CN1CCC(CC1)NC(=O)C1C(O)=C(Cl)C=C(Cl)C=1OC","InChI=1S/C14H18Cl2N2O3/c1-18-5-3-8(4-6-18)17-14(20)11-12(19)9(15)7-10(16)13(11)21-2/h7-8,19H,3-6H2,1-2H3,(H,17,20)","YMBGKAXKRLPYSY-UHFFFAOYSA-N","?","25","potentiometric","a1/apparent","OH","acidic",6.02
"16090","S(=O)(=O)(NC1(=NC=CN=C1))C2(=CC=C(N)C=C2)","NC1C=CC(=CC=1)S(=O)(=O)NC1C=NC=CN=1","InChI=1S/C10H10N4O2S/c11-8-1-3-9(4-2-8)17(15,16)14-10-7-12-5-6-13-10/h1-7H,11H2,(H,13,14)","YEAICDDXRUOCKJ-UHFFFAOYSA-N","?",,"potentiometric","a/apparent","?","acidic",6.04
"11207","OC2(=CC=1(C(=C[N+](C)=CC=1)C=C2))","C[N+]1C=C2C=CC(O)=CC2=CC=1","InChI=1S/C10H9NO/c1-11-5-4-8-6-10(12)3-2-9(8)7-11/h2-7H,1H3/p+1","PCMZOBJZBLCMBV-UHFFFAOYSA-O","?","20","mean from 2","a/apparent","?","acidic",6.06
"12520","OC=2(C=1(C(=[N+](C=CC=1)CCC)C=CC=2))","CCC[N+]1C=CC=C2C(O)=CC=CC=12","InChI=1S/C12H13NO/c1-2-8-13-9-4-5-10-11(13)6-3-7-12(10)14/h3-7,9H,2,8H2,1H3/p+1","AQKZBNQWQQMICF-UHFFFAOYSA-O","?","25","spectrophotometric","a1/apparent","?","acidic",6.06
"17896","N1(=NNC(=N1)NC)","CNC1NN=NN=1","InChI=1S/C2H5N5/c1-3-2-4-6-7-5-2/h1H3,(H2,3,4,5,6,7)","LQICKCWPFRQEFI-UHFFFAOYSA-N","?","25","potentiometric","a/apparent","?","acidic",6.06
"14540","SC1(=CC=C(NC(=O)C)C=C1)","C/C(/O)=N\C1C=CC(S)=CC=1","InChI=1S/C8H9NOS/c1-6(10)9-7-2-4-8(11)5-3-7/h2-5,11H,1H3,(H,9,10)","AYEQJLOHMLYKAV-UHFFFAOYSA-N","?","25","spectrophotometric","a1/apparent","?","acidic",6.08
"11845","FC(F)(F)C(=O)CC(=O)C","CC(=O)C=C(O)C(F)(F)F","InChI=1S/C5H5F3O2/c1-3(9)2-4(10)5(6,7)8/h2,10H,1H3","HZWABPCDJWBJSC-UHFFFAOYSA-N","?","25",,"a1/apparent","C-H","acidic",6.09
"12565","S(=O)(C=1(NN=NC=1))CC2(=CC=CC=C2)","O=S(CC1C=CC=CC=1)C1=CN=NN1","InChI=1S/C9H9N3OS/c13-14(9-6-10-12-11-9)7-8-4-2-1-3-5-8/h1-6H,7H2,(H,10,11,12)","QNAZAMSNHHFNSW-UHFFFAOYSA-N","?","23","spectrophotometric","a1/apparent","NH","acidic",6.09
"13663","S1(C(=O)NC(C1(CC=C)CC=C)=O)","C=CCC1(CC=C)SC(=O)NC1=O","InChI=1S/C9H11NO2S/c1-3-5-9(6-4-2)7(11)10-8(12)13-9/h3-4H,1-2,5-6H2,(H,10,11,12)","ICNXXSDHIHIHCV-UHFFFAOYSA-N","?","20","potentiometric","a/apparent","?","acidic",6.1
"12127","OC1(=C(NN=C(C#N)C#N)C=CC=C1)","N#CC(C#N)N=NC1C=CC=CC=1O","InChI=1S/C9H6N4O/c10-5-7(6-11)12-13-8-3-1-2-4-9(8)14/h1-4,7,14H","WVGMAMQUOVOMHG-UHFFFAOYSA-N","?","25","spectrophotometric","a1/apparent","?","acidic",6.1
"11213","OC=2(C=1(C(=[N+](C=CC=1)C)C=CC=2))","C[N+]1C=CC=C2C(O)=CC=CC=12","InChI=1S/C10H9NO/c1-11-7-3-4-8-9(11)5-2-6-10(8)12/h2-7H,1H3/p+1","GBBVCUHEJCSCQA-UHFFFAOYSA-O","?","20","potentiometric","a/apparent","?","acidic",6.12
"16629","O=C(O)C2(=C(N=CC=CC1(=CC=CC=C1))C=CC=C2)","OC(=O)C1C=CC=CC=1N=CC=CC1C=CC=CC=1","InChI=1S/C16H13NO2/c18-16(19)14-10-4-5-11-15(14)17-12-6-9-13-7-2-1-3-8-13/h1-12H,(H,18,19)","ARTGPTWINYHLGT-UHFFFAOYSA-N","?","25","spectrophotometric","a1/apparent","carboxyl","acidic",6.12
"10300","N1(=NNC(=N1)NCC)","CCNC1NN=NN=1","InChI=1S/C3H7N5/c1-2-4-3-5-7-8-6-3/h2H2,1H3,(H2,4,5,6,7,8)","AYZFMCOIISJDHU-UHFFFAOYSA-N","?","25","potentiometric","a/apparent","?","acidic",6.12
"17334","O=C(CC=O)C","C=C(O)CC=O","InChI=1S/C4H6O2/c1-4(6)2-3-5/h3,6H,1-2H2","UHRWHNOQCOOEFJ-UHFFFAOYSA-N","?","25","mean from 2","a1/apparent","?","acidic",6.12
"11218","O=C1(N(O)C(=O)C2(=C1C=CC=C2))","ON1C(=O)C2C=CC=CC=2C1=O","InChI=1S/C8H5NO3/c10-7-5-3-1-2-4-6(5)8(11)9(7)12/h1-4,12H","CFMZSMGAMPBRBE-UHFFFAOYSA-N","?","26","mean from 3","a1/apparent","OH","acidic",6.13
"13911","SC=1(C=NC2(=CC=CC=C2(C=1)))","SC1=CC2=CC=CC=C2N=C1","InChI=1S/C9H7NS/c11-8-5-7-3-1-2-4-9(7)10-6-8/h1-6,11H","ZPKXXXUAUKOZJA-UHFFFAOYSA-N","?","20","spectrophotometric","a2/apparent","?","acidic",6.13
"13137","O=C1(OC(C)(C)C(N1)=O)","CC1(C)OC(=O)NC1=O","InChI=1S/C5H7NO3/c1-5(2)3(7)6-4(8)9-5/h1-2H3,(H,6,7,8)","JYJFNDQBESEHJQ-UHFFFAOYSA-N","?","24","mean from 2","a/apparent","?","acidic",6.15
"11770","O=C([N+]1(=CC=C(C)C=C1))C","CC1=CC=[N+](C=C1)C(=C)O","InChI=1S/C8H9NO/c1-7-3-5-9(6-4-7)8(2)10/h3-6H,2H2,1H3/p+1","JJVQVYUHVGKGHL-UHFFFAOYSA-O","?","25",,"a1/apparent","?","acidic",6.15
"12125","ClC1(=CC=C(NN=C(C#N)C#N)C=C1)","N#CC(C#N)N=NC1C=CC(Cl)=CC=1","InChI=1S/C9H5ClN4/c10-7-1-3-8(4-2-7)13-14-9(5-11)6-12/h1-4,9H","VSRWRLJPOOTNFT-UHFFFAOYSA-N","?","25","mean from 2","a1/apparent","?","acidic",6.15
"10580","O=C1(C(O)=CC(C(=O)C)=CC=C1)","C=C(O)C1C=C(O)C(=O)C=CC=1","InChI=1S/C9H8O3/c1-6(10)7-3-2-4-8(11)9(12)5-7/h2-5,10H,1H2,(H,11,12)","AOVMORBFDNZFJV-UHFFFAOYSA-N","?","25","spectrophotometric","a1/apparent","?","acidic",6.16
"10947","O=C2(C1(=C(C=CC=C1)C(C2C)=O))","CC1=C(O)C2C=CC=CC=2C1=O","InChI=1S/C10H8O2/c1-6-9(11)7-4-2-3-5-8(7)10(6)12/h2-5,11H,1H3","CRPKSMQXQCHJTE-UHFFFAOYSA-N","?","25","mean from 2","a1/apparent","?","acidic",6.17
"16030","O=C1(C(C(=O)C(CC=C(C)C)C(C1C(=O)CC(C)C)=O)(CC=C(C)C)CC=C(C)C)","CC(C)CC(=O)C1C(=O)C(CC=C(C)C)=C(O)C(CC=C(C)C)(CC=C(C)C)C=1O","InChI=1S/C26H38O4/c1-16(2)9-10-20-23(28)22(21(27)15-19(7)8)25(30)26(24(20)29,13-11-17(3)4)14-12-18(5)6/h9,11-12,19,29-30H,10,13-15H2,1-8H3","HAWZEVNVVBVBEO-UHFFFAOYSA-N","?","25","potentiometric","a/apparent","?","acidic",6.18
"10979","O=C2(OC1(=C(C=CC(=C1)O)C=C2))","OC1=CC2OC(=O)C=CC=2C=C1","InChI=1S/C9H6O3/c10-7-3-1-6-2-4-9(11)12-8(6)5-7/h1-5,10H","ORHBXUUXSCNDEV-UHFFFAOYSA-N","?","20","potentiometric","a1/apparent","H of OH","acidic",6.18
"13783","O=C2(N1(N=CN=C1NC(=C2)C))","CC1CC(=O)N2N=CN=C2N=1","InChI=1S/C6H6N4O/c1-4-2-5(11)10-6(9-4)7-3-8-10/h3H,2H2,1H3","YOCXDGBQQYVALU-UHFFFAOYSA-N","?","25","potentiometric","a/apparent","?","acidic",6.19
"16024","S1(=O)(=O)(NC=3(C=CC=C2(C=3(C1=CC=C2))))","O=S1(=O)NC2C=CC=C3C=CC=C1C3=2","InChI=1S/C10H7NO2S/c12-14(13)9-6-2-4-7-3-1-5-8(11-14)10(7)9/h1-6,11H","HOBYPSNNFBRLIX-UHFFFAOYSA-N","?","25","spectrophotometric","a1/apparent","NH","acidic",6.2
"13062","O=NC1(=CC=C(O)C=C1)","OC1=CC=C(C=C1)N=O","InChI=1S/C6H5NO2/c8-6-3-1-5(7-9)2-4-6/h1-4,8H","JSTCPNFNKICNNO-UHFFFAOYSA-N","?","23","spectrophotometric","a1/apparent","OH","acidic",6.2
"10620","O=CC1(=C(O)C(=CC(=C1)C)C=O)","CC1=CC(C=O)=C(O)C(=C1)C=O","InChI=1S/C9H8O3/c1-6-2-7(4-10)9(12)8(3-6)5-11/h2-5,12H,1H3","ZBOUXALQDLLARY-UHFFFAOYSA-N","?","26.9","spectrophotometric","a1/apparent","?","acidic",6.2
"16845","S(=O)(=O)(N(C)C)C2(=CC=C(NS(=O)(=O)C1(=CC=C(N)C=C1))C=C2)","CN(C)S(=O)(=O)C1C=CC(=CC=1)NS(=O)(=O)C1C=CC(N)=CC=1","InChI=1S/C14H17N3O4S2/c1-17(2)23(20,21)14-9-5-12(6-10-14)16-22(18,19)13-7-3-11(15)4-8-13/h3-10,16H,15H2,1-2H3","TYDVXCIBGRTKRO-UHFFFAOYSA-N","?","25","potentiometric","a/apparent","?","acidic",6.23
"17131","S(=O)(=O)(C1(=NC=NN1))CC2(=CC=CC=C2)","O=S(=O)(CC1C=CC=CC=1)C1NN=CN=1","InChI=1S/C9H9N3O2S/c13-15(14,9-10-7-11-12-9)6-8-4-2-1-3-5-8/h1-5,7H,6H2,(H,10,11,12)","JPQPSCZRSYIJIJ-UHFFFAOYSA-N","?","23","spectrophotometric","a1/apparent","NH","acidic",6.23
"17557","[SeH]CCC[NH3+]","NCCC[SeH]","InChI=1S/C3H9NSe/c4-2-1-3-5/h5H,1-4H2","GBWLSWUOPMNOPN-UHFFFAOYSA-N","?","22","potentiometric","a1/apparent","?","acidic",6.27
"13492","[Br]C1(=C(O)C(=O)C=C(C=C1)C(C)C)","CC(C)C1C=CC(Br)=C(O)C(=O)C=1","InChI=1S/C10H11BrO2/c1-6(2)7-3-4-8(11)10(13)9(12)5-7/h3-6H,1-2H3,(H,12,13)","CGYZOYSDCBOVNH-UHFFFAOYSA-N","?","25","potentiometric","a/thermodynamic","?","acidic",6.28
"14620","FC(F)(F)C(=O)CC(=O)C1(=CC=CC=C1)","OC(=CC(=O)C1C=CC=CC=1)C(F)(F)F","InChI=1S/C10H7F3O2/c11-10(12,13)9(15)6-8(14)7-4-2-1-3-5-7/h1-6,15H","FOIZANFRLYGPFF-UHFFFAOYSA-N","?","20","potentiometric","a/apparent","?","acidic",6.3
"16105","S=C2(NC(=O)C(C1(=CC=CC=C1))(CC)C(N2)=O)","CCC1(C2C=CC=CC=2)C(=O)NC(=S)NC1=O","InChI=1S/C12H12N2O2S/c1-2-12(8-6-4-3-5-7-8)9(15)13-11(17)14-10(12)16/h3-7H,2H2,1H3,(H2,13,14,15,16,17)","GHHFRPRCYQNNDL-UHFFFAOYSA-N","?",,"potentiometric","a/apparent","?","acidic",6.3
"16772","OC1(=C(C=C(C(C)(C)C)C=C1C[NH+](C)C)C[NH+](C)C)","CC(C)(C)C1=CC(CN(C)C)=C(O)C(CN(C)C)=C1","InChI=1S/C16H28N2O/c1-16(2,3)14-8-12(10-17(4)5)15(19)13(9-14)11-18(6)7/h8-9,19H,10-11H2,1-7H3","HFYDSFHQXIJOCT-UHFFFAOYSA-N","?","25","potentiometric","a1/apparent","?","acidic",6.3
"16937","O=C1(C(C(O)C(C1CCC(C)C)=O)(CCC(C)C)CCC(C)C)","CC(C)CCC1C(=O)C(O)C(CCC(C)C)(CCC(C)C)C=1O","InChI=1S/C20H36O3/c1-13(2)7-8-16-17(21)19(23)20(18(16)22,11-9-14(3)4)12-10-15(5)6/h13-15,19,22-23H,7-12H2,1-6H3","UQSWDZGLIPPJQX-UHFFFAOYSA-N","?",,"potentiometric","a/apparent","?","acidic",6.3
"13557","O=[N+]([O-])C1(=CC(=CC=C1)C[N+](=O)[O-])","[O-][N+](=O)C1=CC(C[N+]([O-])=O)=CC=C1","InChI=1S/C7H6N2O4/c10-8(11)5-6-2-1-3-7(4-6)9(12)13/h1-4H,5H2","BCLVKLICGYQVQA-UHFFFAOYSA-N","?","25","spectrophotometric","a1/apparent","?","acidic",6.3
"11228","N1(=NNC(=N1)NC2(=CC=CC=C2))","C1=CC=CC=C1NC1NN=NN=1","InChI=1S/C7H7N5/c1-2-4-6(5-3-1)8-7-9-11-12-10-7/h1-5H,(H2,8,9,10,11,12)","JJGVUQXLNNGWPZ-UHFFFAOYSA-N","?","25","potentiometric","a/apparent","?","acidic",6.3
"13291","O=C1(N(C(=O)C=2(N=CN(C=2(N1))C))C)","CN1C(=O)NC2=C(N=CN2C)C1=O","InChI=1S/C7H8N4O2/c1-10-3-8-4-5(10)9-7(13)11(2)6(4)12/h3H,1-2H3,(H,9,13)","XKZALMBJTMJPFU-UHFFFAOYSA-N","?","18","mean from 2","a2/apparent","?","acidic",6.3
"14219","SC1(=C(C(=O)OC)C=CC=C1)","COC(=O)C1C=CC=CC=1S","InChI=1S/C8H8O2S/c1-10-8(9)6-4-2-3-5-7(6)11/h2-5,11H,1H3","BAQGCWNPCFABAY-UHFFFAOYSA-N","?","25","spectrophotometric","a1/apparent","?","acidic",6.3
"12096","S1(C(C(=O)CC(=O)C(F)(F)F)=CC=C1)","OC(=CC(=O)C(F)(F)F)C1=CC=CS1","InChI=1S/C8H5F3O2S/c9-8(10,11)7(13)4-5(12)6-2-1-3-14-6/h1-4,12H","NRUKQBVKKFFCSN-UHFFFAOYSA-N","?","20","mean from 3","a1/apparent","C-H","acidic",6.31
"11415","[Br]C=1(C=CC(=O)C(=CC=1)O)","OC1=CC=C(Br)C=CC1=O","InChI=1S/C7H5BrO2/c8-5-1-3-6(9)7(10)4-2-5/h1-4H,(H,9,10)","DAHLUZDNJJOKGS-UHFFFAOYSA-N","?","25","potentiometric","a/apparent","?","acidic",6.32
"11803","N1(=NNC(=N1)N(CC)CC)","CCN(CC)C1NN=NN=1","InChI=1S/C5H11N5/c1-3-10(4-2)5-6-8-9-7-5/h3-4H2,1-2H3,(H,6,7,8,9)","MXNXXDDUEBGZAN-UHFFFAOYSA-N","?","25","potentiometric","a/apparent","?","acidic",6.33
"12061","S=C1(OC=2(C=CC=CC=2(N1)))","S=C1NC2C=CC=CC=2O1","InChI=1S/C7H5NOS/c10-7-8-5-3-1-2-4-6(5)9-7/h1-4H,(H,8,10)","FLFWJIBUZQARMD-UHFFFAOYSA-N","?","25","conductometric","a/apparent","?","acidic",6.33
"10980","O=C(O)C12(CCC(O)(CC1)CC2)","OC12CCC(CC1)(CC2)C(O)=O","InChI=1S/C9H14O3/c10-7(11)8-1-4-9(12,5-2-8)6-3-8/h12H,1-6H2,(H,10,11)","LXQJPKMORWPZGM-UHFFFAOYSA-N","?","25","potentiometric","a/apparent","?","acidic",6.33
"10001","SC1(=CC=C(F)C=C1)","FC1=CC=C(S)C=C1","InChI=1S/C6H5FS/c7-5-1-3-6(8)4-2-5/h1-4,8H","OKIHXNKYYGUVTE-UHFFFAOYSA-N","?","32","mean from 2","a1/apparent","SH","acidic",6.35
"12777","O=C1(C(C=O)CCCC1)","OC1=CCCCC1C=O","InChI=1S/C7H10O2/c8-5-6-3-1-2-4-7(6)9/h4-6,9H,1-3H2","QQPANSSAEFHWRT-UHFFFAOYSA-N","?","20","potentiometric","a/apparent","?","acidic",6.35
"15178","S(=O)(=O)([O-])C=2(C1(=C(NN=C1)C(=O)C(C=2)=NO))","OS(=O)(=O)C1=CC(N=O)C(=O)C2NN=CC1=2","InChI=1S/C7H5N3O5S/c11-7-4(10-12)1-5(16(13,14)15)3-2-8-9-6(3)7/h1-2,4H,(H,8,9)(H,13,14,15)","KALUGPCTNGPBMP-UHFFFAOYSA-N","?","25","potentiometric","a/apparent","?","acidic",6.35
"12121","[Br]C1(=C(NN=C(C#N)C#N)C=CC=C1)","N#CC(C#N)N=NC1C=CC=CC=1Br","InChI=1S/C9H5BrN4/c10-8-3-1-2-4-9(8)14-13-7(5-11)6-12/h1-4,7H","ROODCEVUWMLMSL-UHFFFAOYSA-N","?","25","mean from 2","a1/apparent","?","acidic",6.35
"14557","[Br]C1(=CC([N+](=O)[O-])=C(O)C=C1)","[O-][N+](=O)C1C=C(Br)C=CC=1O","InChI=1S/C6H4BrNO3/c7-4-1-2-6(9)5(3-4)8(10)11/h1-3,9H","CUTFAPGINUFNQM-UHFFFAOYSA-N","?","25","spectrophotometric","a1/apparent","?","acidic",6.36
"13067","O=C1(C=CC(=NO)C=C1)","O=NC1C=CC(=O)C=C1","InChI=1S/C6H5NO2/c8-6-3-1-5(7-9)2-4-6/h1-5H","SCPGYOMJMKILLX-UHFFFAOYSA-N","?","25","spectrophotometric","a/thermodynamic","?","acidic",6.36
"13664","S1(C(=O)NC(C1(CCC)CCC)=O)","CCCC1(CCC)SC(=O)NC1=O","InChI=1S/C9H15NO2S/c1-3-5-9(6-4-2)7(11)10-8(12)13-9/h3-6H2,1-2H3,(H,10,11,12)","MALPXCBPFJKRKQ-UHFFFAOYSA-N","?","20","potentiometric","a/apparent","?","acidic",6.37
"16874","S1(C(=NC2(=C1C=CC=C2))C=3(C(=O)OC=4(C=C(O)C=CC=4(C=3C#N))))","N#CC1=C(C(=O)OC2C=C(O)C=CC=21)C1=NC2C=CC=CC=2S1","InChI=1S/C17H8N2O3S/c18-8-11-10-6-5-9(20)7-13(10)22-17(21)15(11)16-19-12-3-1-2-4-14(12)23-16/h1-7,20H","NUMVQHABHCWBHI-UHFFFAOYSA-N","?","22",,"a1/thermodynamic","OH","acidic",6.38
"15851","ClC2(=C(Cl)C(C(=O)C1(=CC(=C(O)C=C1)C[NH3+]))=CC=C2OCC(=O)OCC)","CCOC(O)=COC1C=CC(C(=O)C2C=C(CN)C(O)=CC=2)=C(Cl)C=1Cl","InChI=1S/C18H17Cl2NO5/c1-2-25-15(23)9-26-14-6-4-12(16(19)17(14)20)18(24)10-3-5-13(22)11(7-10)8-21/h3-7,9,22-23H,2,8,21H2,1H3","ZXUDNQBHGDKVSO-UHFFFAOYSA-N","?","25","spectrophotometric","a1/apparent","OH","acidic",6.38
"17403","O=[N+]([O-])NCC","CCN[N+]([O-])=O","InChI=1S/C2H6N2O2/c1-2-3-4(5)6/h3H,2H2,1H3","AHLHDIKRENEJHF-UHFFFAOYSA-N","?","25","potentiometric","a1/thermodynamic","N-H","acidic",6.39
"12827","SC1(=CC(OC)=CC=C1)","COC1C=C(S)C=CC=1","InChI=1S/C7H8OS/c1-8-6-3-2-4-7(9)5-6/h2-5,9H,1H3","QMVAZEHZOPDGHA-UHFFFAOYSA-N","?","25","spectrophotometric","a1/thermodynamic","S-H","acidic",6.39
"16603","O=C(ONC(=O)C1(=CC=CC=C1))NC2(=CC=CC=C2)","O=C(NC1C=CC=CC=1)ONC(=O)C1C=CC=CC=1","InChI=1S/C14H12N2O3/c17-13(11-7-3-1-4-8-11)16-19-14(18)15-12-9-5-2-6-10-12/h1-10H,(H,15,18)(H,16,17)","NSDGYCCYSJGXPL-UHFFFAOYSA-N","?","25",,"a/apparent","?","acidic",6.4
"10242","OC1(=C[N+]([O-])=CC=C1)","[O-][N+]1C=C(O)C=CC=1","InChI=1S/C5H5NO2/c7-5-2-1-3-6(8)4-5/h1-4,7H","YMEZKRMAPQIBQH-UHFFFAOYSA-N","?",,,"a/apparent","H%+&","acidic",6.4
"12284","S(SCC(N)C(=O)N)CC(N)C(=O)N","NC(O)C(=N)CSSCC(=N)C(N)O","InChI=1S/C6H14N4O2S2/c7-3(5(9)11)1-13-14-2-4(8)6(10)12/h5-8,11-12H,1-2,9-10H2","SUUHZPWWXZAIEW-UHFFFAOYSA-N","?","20","mean from 2","a1/apparent","?","acidic",6.41
"13697","O=[N+]([O-])C1(=C(O)C=CC(=C1)C(=O)[O-])","[O-][N+](=O)C1=CC(=CC=C1O)C(O)=O","InChI=1S/C7H5NO5/c9-6-2-1-4(7(10)11)3-5(6)8(12)13/h1-3,9H,(H,10,11)","QRYSWXFQLFLJTC-UHFFFAOYSA-N","?","25","spectrophotometric","a1/apparent","?","acidic",6.41