"Molecule name","OriginalSmiles","Canonical_QSARr","InChI_Code_QSARr","InChI Key_QSARr","Salt_Solvent (Concatenate)","temp","method","type","group","basicOrAcidic","pKa"
"13730","N=3(C=1(C(=CC2(=CC=CC=C2(C=1)))NC=3))","C1NC2=CC3=CC=CC=C3C=C2N=1","InChI=1S/C11H8N2/c1-2-4-9-6-11-10(12-7-13-11)5-8(9)3-1/h1-7H,(H,12,13)","USYCQABRSUEURP-UHFFFAOYSA-N","?","20","spectrophotometric","a2/apparent","?","acidic",12.52
"16943","P(=O)(NC1(CCCCC1))(CCCCCCC)CCCCCCC","CCCCCCCP(=O)(CCCCCCC)NC1CCCCC1","InChI=1S/C20H42NOP/c1-3-5-7-9-14-18-23(22,19-15-10-8-6-4-2)21-20-16-12-11-13-17-20/h20H,3-19H2,1-2H3,(H,21,22)","DFAIGXVEDCMKPB-UHFFFAOYSA-N","?","25","conductometric","a1/apparent","?","acidic",12.53
"13734","N=3(C2(=C(C=1(C(=CC=CC=1)C=C2))NC=3))","C1NC2C3=CC=CC=C3C=CC=2N=1","InChI=1S/C11H8N2/c1-2-4-9-8(3-1)5-6-10-11(9)13-7-12-10/h1-7H,(H,12,13)","HCCNHYWZYYIOFM-UHFFFAOYSA-N","?","20","spectrophotometric","a2/apparent","?","acidic",12.54
"16343","O=[N+]([O-])C3(=CC1(=C(NC2(=C1CCN=C2C))C=C3))","CC1=NCCC2C3C=C(C=CC=3NC=21)[N+]([O-])=O","InChI=1S/C12H11N3O2/c1-7-12-9(4-5-13-7)10-6-8(15(16)17)2-3-11(10)14-12/h2-3,6,14H,4-5H2,1H3","MVOPEQANCBUNRG-UHFFFAOYSA-N","?","25","spectrophotometric","a1/apparent","N-H","acidic",12.55
"12427","O=C([O-])C=2(C1(=NC=CC=C1C(N)=CC=2))","NC1=CC=C(C(O)=O)C2=NC=CC=C21","InChI=1S/C10H8N2O2/c11-8-4-3-7(10(13)14)9-6(8)2-1-5-12-9/h1-5H,11H2,(H,13,14)","HPYOTWIJFUEKRW-UHFFFAOYSA-N","?","25","potentiometric","b/thermodynamic","?","acidic",12.58
"16308","N1(=C(NC=C1C2(=CC=CC=C2))C3(=CC=CC=C3))","C1NC(=NC=1C1C=CC=CC=1)C1C=CC=CC=1","InChI=1S/C15H12N2/c1-3-7-12(8-4-1)14-11-16-15(17-14)13-9-5-2-6-10-13/h1-11H,(H,16,17)","FHHCKYIBYRNHOZ-UHFFFAOYSA-N","?","25","spectrophotometric","b/apparent","?","acidic",12.6
"12724","N=2(C1(=C(C=CC=C1)NC=2))","C1NC2C=CC=CC=2N=1","InChI=1S/C7H6N2/c1-2-4-7-6(3-1)8-5-9-7/h1-5H,(H,8,9)","HYZJCKYKOHLVJF-UHFFFAOYSA-N","?","21","mean from 4","a1/thermodynamic","?","acidic",12.63
"15828","S=C(N=NC2(=CC=1(C(=CC=CC=1)C=C2)))NNC4(=CC=3(C(=CC=CC=3)C=C4))","S=C(NNC1=CC2=CC=CC=C2C=C1)N=NC1=CC2=CC=CC=C2C=C1","InChI=1S/C21H16N4S/c26-21(24-22-19-11-9-15-5-1-3-7-17(15)13-19)25-23-20-12-10-16-6-2-4-8-18(16)14-20/h1-14,22H,(H,24,26)","FLGUZMFZUIMISX-UHFFFAOYSA-N","?",,,"a/apparent","?","acidic",12.68
"17302","[Br]C=1(C=NNC=1)","BrC1=CNN=C1","InChI=1S/C3H3BrN2/c4-3-1-5-6-2-3/h1-2H,(H,5,6)","WVGCPEDBFHEHEZ-UHFFFAOYSA-N","?","25","spectrophotometric","a1/apparent","N-H","acidic",12.69
"14071","O=C(OCC)C(C(=O)C)CC","CC(=O)C(CC)=C(O)OCC","InChI=1S/C8H14O3/c1-4-7(6(3)9)8(10)11-5-2/h10H,4-5H2,1-3H3","GFUYBIONJGSAIN-UHFFFAOYSA-N","?","25",,"a/apparent","?","acidic",12.74
"16026","N1(=C(NC=2(C1=CC3(=CC=CC=C3(C=2))))N)","NC1NC2=CC3=CC=CC=C3C=C2N=1","InChI=1S/C11H9N3/c12-11-13-9-5-7-3-1-2-4-8(7)6-10(9)14-11/h1-6H,(H3,12,13,14)","PKAMQIFKTSHCLX-UHFFFAOYSA-N","?","20","spectrophotometric","a2/apparent","?","acidic",12.8
"17333","O(O)C(C)(C)C","CC(C)(C)OO","InChI=1S/C4H10O2/c1-4(2,3)6-5/h5H,1-3H3","CIHOLLKRGTVIJN-UHFFFAOYSA-N","?","20","spectrophotometric","a/apparent","?","acidic",12.8
"17693","S=CNCC(C)C","CC(C)CNC=S","InChI=1S/C5H11NS/c1-5(2)3-6-4-7/h4-5H,3H2,1-2H3,(H,6,7)","AKNYWGZHAGFHFL-UHFFFAOYSA-N","?","20","potentiometric","a1/apparent","?","acidic",12.8
"12582","O(O)C(CC(C)C)CC","CC(C)CC(CC)OO","InChI=1S/C7H16O2/c1-4-7(9-8)5-6(2)3/h6-8H,4-5H2,1-3H3","LRVXOVHOPRMLHP-UHFFFAOYSA-N","?","20","spectrophotometric","apparent","?","acidic",12.8
"14583","O=C(NN)C1(=C(N)C=CC=C1)","NC1C=CC=CC=1C(=O)NN","InChI=1S/C7H9N3O/c8-6-4-2-1-3-5(6)7(11)10-9/h1-4H,8-9H2,(H,10,11)","GRWMSCBKWMQPON-UHFFFAOYSA-N","?","25","potentiometric","a3/apparent","?","acidic",12.8
"14031","N=2(C1(=C(C=CC=C1)NC=2CN))","NCC1NC2C=CC=CC=2N=1","InChI=1S/C8H9N3/c9-5-8-10-6-3-1-2-4-7(6)11-8/h1-4H,5,9H2,(H,10,11)","UCOSRTUSVXHIMK-UHFFFAOYSA-N","?","26.9","spectrophotometric","a3/apparent","CH2NH2","acidic",12.8
"16878","P(=O)(CCCCCCC)(CCCCCCC)CCCCCCC","CCCCCCCP(=O)(CCCCCCC)CCCCCCC","InChI=1S/C21H45OP/c1-4-7-10-13-16-19-23(22,20-17-14-11-8-5-2)21-18-15-12-9-6-3/h4-21H2,1-3H3","KNFWHHCXXKWASF-UHFFFAOYSA-N","?","25","conductometric","a1/apparent","?","acidic",12.81
"14734","OCO","OCO","InChI=1S/CH4O2/c2-1-3/h2-3H,1H2","CKFGINPQOCXMAZ-UHFFFAOYSA-N","?","19","mean from 2","a/apparent","?","acidic",12.83
"12499","OC(C1(=NC=CC=C1))C2(=CC=CC=C2)","OC(C1C=CC=CN=1)C1C=CC=CC=1","InChI=1S/C12H11NO/c14-12(10-6-2-1-3-7-10)11-8-4-5-9-13-11/h1-9,12,14H","UYESUYBXKHPUDU-UHFFFAOYSA-N","?","22.4","potentiometric","a2/thermodynamic","prot.","acidic",12.85
"17158","N=3(C=1(C(=CC2(=CC=CC=C2(C=1)))NC=3CC))","CCC1NC2=CC3=CC=CC=C3C=C2N=1","InChI=1S/C13H12N2/c1-2-13-14-11-7-9-5-3-4-6-10(9)8-12(11)15-13/h3-8H,2H2,1H3,(H,14,15)","BAWAHZPNWYHRPE-UHFFFAOYSA-N","?","20","spectrophotometric","a2/apparent","?","acidic",12.9
"15537","OC2(=NN(C1(=CC=CC=C1))C(=C2)C3(=CC=CC=C3))","OC1C=C(C2C=CC=CC=2)N(N=1)C1C=CC=CC=1","InChI=1S/C15H12N2O/c18-15-11-14(12-7-3-1-4-8-12)17(16-15)13-9-5-2-6-10-13/h1-11H,(H,16,18)","UDVCBWHKPVRDRP-UHFFFAOYSA-N","?",,"potentiometric","b/apparent","?","acidic",12.9
"14546","O(C1(=C(N=CC=C1)C(O)O))C","COC1C=CC=NC=1C(O)O","InChI=1S/C7H9NO3/c1-11-5-3-2-4-8-6(5)7(9)10/h2-4,7,9-10H,1H3","CDQGNCOYZJTPSJ-UHFFFAOYSA-N","?","20","spectrophotometric","a2/apparent","H+","acidic",12.95
"17172","S(C1(=NC=2(C=C3(CCCCC3(=CC=2(N1))))))C","CSC1NC2C=C3CCCCC3=CC=2N=1","InChI=1S/C12H14N2S/c1-15-12-13-10-6-8-4-2-3-5-9(8)7-11(10)14-12/h6-7H,2-5H2,1H3,(H,13,14)","XCYSMGNFMKMIDE-UHFFFAOYSA-N","?","20","spectrophotometric","a2/apparent","?","acidic",13.0
"14415","S=C(NCC1(=CC=CC=C1))C","CC(=S)NCC1C=CC=CC=1","InChI=1S/C9H11NS/c1-8(11)10-7-9-5-3-2-4-6-9/h2-6H,7H2,1H3,(H,10,11)","DAENMPDSCKPTEP-UHFFFAOYSA-N","?","20","potentiometric","a1/apparent","?","acidic",13.0
"14451","O=C(NCO)C1(=CC=CC=C1)","OCNC(=O)C1C=CC=CC=1","InChI=1S/C8H9NO2/c10-6-9-8(11)7-4-2-1-3-5-7/h1-5,10H,6H2,(H,9,11)","UOUBPDZUBVJZOQ-UHFFFAOYSA-N","?","25","kinetics","a1/apparent","OH","acidic",13.05
"12522","[Br]C=1(C=2(C(C=[N+](C=1)CCO)=CC=CC=2))","OCC[N+]1=CC2=CC=CC=C2C(Br)=C1","InChI=1S/C11H11BrNO/c12-11-8-13(5-6-14)7-9-3-1-2-4-10(9)11/h1-4,7-8,14H,5-6H2/q+1","STVMIWNRKWQEIM-UHFFFAOYSA-N","?","25","spectrophotometric","a2/apparent","O-H","acidic",13.08
"12429","O=C([O-])CCC1(=NC=2(C=CC=CC=2(N1)))","OC(O)=CCC1NC2C=CC=CC=2N=1","InChI=1S/C10H10N2O2/c13-10(14)6-5-9-11-7-3-1-2-4-8(7)12-9/h1-4,6,13-14H,5H2,(H,11,12)","BJABXUAFRFFWAW-UHFFFAOYSA-N","?","24.9","spectrophotometric","a4/apparent","NH-C-N","acidic",13.1
"17007","O=C(OCC)CC1(=NC=2(C=CC=CC=2(N1)))","CCOC(O)=CC1NC2=CC=CC=C2N=1","InChI=1S/C11H12N2O2/c1-2-15-11(14)7-10-12-8-5-3-4-6-9(8)13-10/h3-7,14H,2H2,1H3,(H,12,13)","YFRDOWNFCUFEML-UHFFFAOYSA-N","?","24.9","spectrophotometric","a3/apparent","NH-C-NH(+)","acidic",13.1
"15368","OC(C1(=NC=CC=C1))(C2(=NC=CC=C2))C3(=CC=NC=C3)","OC(C1C=CC=CN=1)(C1C=CC=CN=1)C1C=CN=CC=1","InChI=1S/C16H13N3O/c20-16(13-7-11-17-12-8-13,14-5-1-3-9-18-14)15-6-2-4-10-19-15/h1-12,20H","NMAYTFQFBHFEFS-UHFFFAOYSA-N","?","20",,"a/apparent","?","acidic",13.13
"12324","[Br-].O=C(N)C1(=C[N+](=CC=C1)CCC#N)","NC(=O)C1C=CC=[N+](CCC#N)C=1","InChI=1S/C9H9N3O/c10-4-2-6-12-5-1-3-8(7-12)9(11)13/h1,3,5,7H,2,6H2,(H-,11,13)/p+1","RGLLIDLXQWQQJL-UHFFFAOYSA-O","[Br-]","25",,"a1/apparent","CONH2","acidic",13.16
"17508","ClC(Cl)CO","OCC(Cl)Cl","InChI=1S/C2H4Cl2O/c3-2(4)1-5/h2,5H,1H2","IDJOCJAIQSKSOP-UHFFFAOYSA-N","?","25",,"a1/apparent","?","acidic",13.18
"17233","OCC#C","C#CCO","InChI=1S/C3H4O/c1-2-3-4/h1,4H,3H2","TVDSBUOJIPERQY-UHFFFAOYSA-N","?","25",,"a1/apparent","?","acidic",13.28
"14843","O=C([O-])CCC(=O)C=C=CC1(=CC=CC=C1)","OC(O)=CCC(=O)C=C=CC1C=CC=CC=1","InChI=1S/C13H12O3/c14-12(9-10-13(15)16)8-4-7-11-5-2-1-3-6-11/h1-3,5-8,10,15-16H,9H2","RETCFBXXDKKHQF-UHFFFAOYSA-N","?","25",,"a1/apparent","?","acidic",13.3
"12323","[Br-].O=C(N)C1(=CC=[N+](CCC#N)C=C1)","NC(=O)C1C=C[N+](CCC#N)=CC=1","InChI=1S/C9H9N3O/c10-4-1-5-12-6-2-8(3-7-12)9(11)13/h2-3,6-7H,1,5H2,(H-,11,13)/p+1","XTMTVVRPVPPXBR-UHFFFAOYSA-O","[Br-]","25",,"a1/apparent","CONH2","acidic",13.3
"11214","S(C1(=CC=CC=C1))C2(NC(=O)C2)","OC1CC(N=1)SC1C=CC=CC=1","InChI=1S/C9H9NOS/c11-8-6-9(10-8)12-7-4-2-1-3-5-7/h1-5,9H,6H2,(H,10,11)","IQVDSMUMVVBIQZ-UHFFFAOYSA-N","?","25",,"a1/apparent","N-H","acidic",13.33
"13424","S(C1(=CC=C(C)C=C1))C2(NC(=O)C2)","CC1=CC=C(C=C1)SC1CC(O)=N1","InChI=1S/C10H11NOS/c1-7-2-4-8(5-3-7)13-10-6-9(12)11-10/h2-5,10H,6H2,1H3,(H,11,12)","GGDQYNXJUXSTHM-UHFFFAOYSA-N","?","25",,"a1/apparent","N-H","acidic",13.45
"11545","O=[N+]([O-])C1(=C(N)C=CC=C1)","NC1C=CC=CC=1[N+]([O-])=O","InChI=1S/C6H6N2O2/c7-5-3-1-2-4-6(5)8(9)10/h1-4H,7H2","DPJCXCZTLWNFOH-UHFFFAOYSA-N","?","25",,"apparent","?","acidic",13.45
"13827","N=2(C(C1(=CC=CC=C1))=CNC=2)","C1NC=C(N=1)C1C=CC=CC=1","InChI=1S/C9H8N2/c1-2-4-8(5-3-1)9-6-10-7-11-9/h1-7H,(H,10,11)","XHLKOHSAWQPOFO-UHFFFAOYSA-N","?","25","spectrophotometric","b/apparent","?","acidic",13.48
"10441","OCC(=[N+]([O-])[O-])CO","[O-][N+]([O-])=C(CO)CO","InChI=1S/C3H6NO4/c5-1-3(2-6)4(7)8/h5-6H,1-2H2/q-1","IWLZBJZCTWYIAA-UHFFFAOYSA-N","?","25","spectrophotometric","a3/apparent","OH","acidic",13.5
"13180","[O-]C1(=[N+](C(N)=CC=N1)C)","C[N+]1=C(N)C=CN=C1O","InChI=1S/C5H7N3O/c1-8-4(6)2-3-7-5(8)9/h2-3H,1H3,(H2,6,7,9)/p+1","UPHQQDZIRIHPHU-UHFFFAOYSA-O","?",,"spectrophotometric","a2/apparent","?","acidic",13.5
"13814","N=1(NC=C(C=1)C2(=CC=CC=C2))","C1=NNC=C1C1C=CC=CC=1","InChI=1S/C9H8N2/c1-2-4-8(5-3-1)9-6-10-11-7-9/h1-7H,(H,10,11)","GPGKNEKFDGOXPO-UHFFFAOYSA-N","?","25","spectrophotometric","a1/apparent","N-H","acidic",13.64
"15283","P(=O)(C1(CCCCC1))(C2(CCCCC2))C3(CCCCC3)","O=P(C1CCCCC1)(C1CCCCC1)C1CCCCC1","InChI=1S/C18H33OP/c19-20(16-10-4-1-5-11-16,17-12-6-2-7-13-17)18-14-8-3-9-15-18/h16-18H,1-15H2","LEFPWWWXFFNJAA-UHFFFAOYSA-N","?","25","conductometric","a1/apparent","?","acidic",13.74
"16790","O=C1(N(N=C(C1=CC3(=C(O)N(C2(=CC=CC=C2))N=C3C))C)C4(=CC=CC=C4))","CC1=NN(C(=O)C1=CC1=C(O)N(N=C1C)C1C=CC=CC=1)C1C=CC=CC=1","InChI=1S/C21H18N4O2/c1-14-18(20(26)24(22-14)16-9-5-3-6-10-16)13-19-15(2)23-25(21(19)27)17-11-7-4-8-12-17/h3-13,26H,1-2H3","PHCPNSHHXUOXSD-UHFFFAOYSA-N","?",,"potentiometric","b/apparent","?","acidic",13.8
"15589","O=C([O-])C(CC1(=CC=CC=C1))CC(=O)C=C=CC","CC=C=CC(=O)CC(CC1C=CC=CC=1)=C(O)O","InChI=1S/C15H16O3/c1-2-3-9-14(16)11-13(15(17)18)10-12-7-5-4-6-8-12/h2,4-9,17-18H,10-11H2,1H3","QMBQWHLEHYWPFL-UHFFFAOYSA-N","?","25",,"a1/apparent","?","acidic",13.9
"13723","O=[N+]([O-])C1(=CC=C(NC(=O)N)C=C1)","NC(=O)NC1C=CC(=CC=1)[N+]([O-])=O","InChI=1S/C7H7N3O3/c8-7(11)9-5-1-3-6(4-2-5)10(12)13/h1-4H,(H3,8,9,11)","LXXTVGKSGJADFU-UHFFFAOYSA-N","?","25","spectrophotometric","a1/apparent","?","acidic",14.0
"17229","OCCO","OCCO","InChI=1S/C2H6O2/c3-1-2-4/h3-4H,1-2H2","LYCAIKOWRPUZTN-UHFFFAOYSA-N","?","25","spectrophotometric","a1/apparent","?","acidic",14.04
"17580","N=1(NC=CC=1)","C1=CC=NN1","InChI=1S/C3H4N2/c1-2-4-5-3-1/h1-3H,(H,4,5)","WTKZEGDFNFYCGP-UHFFFAOYSA-N","?","25","mean from 2","a1/thermodynamic","?","acidic",14.18
"10365","S(C(O)C)CCOC","COCCSC(C)O","InChI=1S/C5H12O2S/c1-5(6)8-4-3-7-2/h5-6H,3-4H2,1-2H3","APJFTFLKPOGWAG-UHFFFAOYSA-N","?","25",,"a1/apparent","OH","acidic",14.21
"12084","N=1(NC=2(C=C(N)C=CC=2(C=1)))","NC1=CC2NN=CC=2C=C1","InChI=1S/C7H7N3/c8-6-2-1-5-4-9-10-7(5)3-6/h1-4H,8H2,(H,9,10)","KEJFADGISRFLFO-UHFFFAOYSA-N","?","24.9","spectrophotometric","a1/apparent","-NH-","acidic",14.3
"17239","ClCCO","OCCCl","InChI=1S/C2H5ClO/c3-1-2-4/h4H,1-2H2","SZIFAVKTNFCBPC-UHFFFAOYSA-N","?","22","mean from 3","a1/apparent","?","acidic",14.37
"17582","N1(=CNC=C1)","C1NC=CN=1","InChI=1S/C3H4N2/c1-2-5-3-4-1/h1-3H,(H,4,5)","RAXXELZNTBOGNW-UHFFFAOYSA-N","?","25","mean from 2","a1/thermodynamic","N-H","acidic",14.47
"15997","N2(=C(C=1(NC=3(C=CC=CC=3(C=1C=C2))))C)","CC1=NC=CC2=C1NC1C=CC=CC2=1","InChI=1S/C12H10N2/c1-8-12-10(6-7-13-8)9-4-2-3-5-11(9)14-12/h2-7,14H,1H3","PSFDQSOCUJVVGF-UHFFFAOYSA-N","?","25","spectrophotometric","a1/apparent","N-H","acidic",14.5
"14985","O(C3(=CC1(=C(NC2(=C1C=CN=C2C))C=C3)))C","CC1=NC=CC2=C1NC1C=CC(=CC2=1)OC","InChI=1S/C13H12N2O/c1-8-13-10(5-6-14-8)11-7-9(16-2)3-4-12(11)15-13/h3-7,15H,1-2H3","XYYVPBBISSKKQB-UHFFFAOYSA-N","?","25","spectrophotometric","a1/apparent","N-H","acidic",14.56
"13222","ClC(Cl)(Cl)C(O)NC(=O)C(C)(C)C","CC(C)(C)C(=O)NC(O)C(Cl)(Cl)Cl","InChI=1S/C7H12Cl3NO2/c1-6(2,3)4(12)11-5(13)7(8,9)10/h5,13H,1-3H3,(H,11,12)","UQHHXDSDEGGFFW-UHFFFAOYSA-N","?","20","potentiometric","a1/apparent","?","acidic",14.65
"16693","N=1(C=3(C(N=C2(C=1C=C(N(C)C)C=C2))=CC(C)=C(C=3)N))","CC1C=C2N=C3C=CC(=CC3=NC2=CC=1N)N(C)C","InChI=1S/C15H16N4/c1-9-6-13-15(8-11(9)16)18-14-7-10(19(2)3)4-5-12(14)17-13/h4-8H,16H2,1-3H3","GLVRJEJEXGVOMJ-UHFFFAOYSA-N","?","23","spectrophotometric","b1/thermodynamic","?","acidic",14.68
"17488","O(CCO)C","COCCO","InChI=1S/C3H8O2/c1-5-3-2-4/h4H,2-3H2,1H3","XNWFRZJHXBZDAG-UHFFFAOYSA-N","?","25",,"a1/apparent","?","acidic",14.88
"15999","N2(=C(C=1(NC=3(C=CC=CC=3(C=1CC2))))C)","CC1=NCCC2C3C=CC=CC=3NC=21","InChI=1S/C12H12N2/c1-8-12-10(6-7-13-8)9-4-2-3-5-11(9)14-12/h2-5,14H,6-7H2,1H3","CWOYLIJQLSNRRN-UHFFFAOYSA-N","?","25","spectrophotometric","a1/apparent","N-H","acidic",14.9
"17791","N=1(NC(C)=CC=1C)","CC1=CC(C)=NN1","InChI=1S/C5H8N2/c1-4-3-5(2)7-6-4/h3H,1-2H3,(H,6,7)","SDXAWLJRERMRKF-UHFFFAOYSA-N","?","24.8","spectrophotometric","a1/thermodynamic","N-H","acidic",15.0
"14991","O(C2(=CC=1(NC=3(C(=NCCC=3(C=1C=C2))C))))C","CC1=NCCC2=C1NC1C=C(C=CC2=1)OC","InChI=1S/C13H14N2O/c1-8-13-11(5-6-14-8)10-4-3-9(16-2)7-12(10)15-13/h3-4,7,15H,5-6H2,1-2H3","RERZNCLIYCABFS-UHFFFAOYSA-N","?","25","spectrophotometric","a1/apparent","N-H","acidic",15.34
"14728","[Br]C","CBr","InChI=1S/CH3Br/c1-2/h1H3","GZUXJHMPEANEGY-UHFFFAOYSA-N","?","25","mean from 2","b1/apparent","?","acidic",15.4
"14730","OC","CO","InChI=1S/CH4O/c1-2/h2H,1H3","OKKJLVBELUTLKV-UHFFFAOYSA-N","?","24","mean from 4","b1/apparent","?","acidic",15.52
"17505","OCCCC","CCCCO","InChI=1S/C4H10O/c1-2-3-4-5/h5H,2-4H2,1H3","LRHPLDYGYMQRHN-UHFFFAOYSA-N","?","25","spectrophotometric","a1/apparent","?","acidic",15.58
"14993","O(C2(=CC=1(NC=3(C(NCCC=3(C=1C=C2))C))))C","COC1C=CC2=C(C=1)NC1C(C)NCCC=12","InChI=1S/C13H16N2O/c1-8-13-11(5-6-14-8)10-4-3-9(16-2)7-12(10)15-13/h3-4,7-8,14-15H,5-6H2,1-2H3","ZXLDQJLIBNPEFJ-UHFFFAOYSA-N","?","25","spectrophotometric","a1/apparent","N-H","acidic",15.6
"11096","OCC1(=NC=2(C=CC=CC=2(N1C)))","CN1C(CO)=NC2C=CC=CC1=2","InChI=1S/C9H10N2O/c1-11-8-5-3-2-4-7(8)10-9(11)6-12/h2-5,12H,6H2,1H3","SQRSIOZFPSFABI-UHFFFAOYSA-N","?","298",,"a1/apparent","O-H","acidic",15.84
"17206","N2(C(C=1(NC=3(C=CC(=CC=3(C=1CC2))N)))C)","CC1NCCC2C3C=C(N)C=CC=3NC=21","InChI=1S/C12H15N3/c1-7-12-9(4-5-14-7)10-6-8(13)2-3-11(10)15-12/h2-3,6-7,14-15H,4-5,13H2,1H3","UACXFGBJZDSYEY-UHFFFAOYSA-N","?","25","spectrophotometric","a1/apparent","N-H","acidic",16.0
"17235","OC(C)C","CC(C)O","InChI=1S/C3H8O/c1-3(2)4/h3-4H,1-2H3","KFZMGEQAYNKOFK-UHFFFAOYSA-N","?","25","mean from 3","a1/apparent","?","acidic",16.14
"17588","N1(C=CC=C1)","C1=CC=CN1","InChI=1S/C4H5N/c1-2-4-5-3-1/h1-5H","KAESVJOAVNADME-UHFFFAOYSA-N","?","24.9",,"a1/apparent","?","acidic",16.5
"14737","O=CC","C=CO","InChI=1S/C2H4O/c1-2-3/h2-3H,1H2","IMROMDMJAWUWLK-UHFFFAOYSA-N","?","25","mean from 2","a1/apparent","?","acidic",16.76
"17507","OC(C)(C)C","CC(C)(C)O","InChI=1S/C4H10O/c1-4(2,3)5/h5H,1-3H3","DKGAVHZHDRPRBM-UHFFFAOYSA-N","?","25","potentiometric","a1/apparent","?","acidic",17.03
"11448","[Br]C1(=CC=C(C(=O)C)C=C1)","C=C(O)C1C=CC(Br)=CC=1","InChI=1S/C8H7BrO/c1-6(10)7-2-4-8(9)5-3-7/h2-5,10H,1H2","SACCYBXBDAONQE-UHFFFAOYSA-N","?","25",,"a1/apparent","?","acidic",18.04
"17909","N1(=C(N)C=CN=C1)","NC1C=CN=CN=1","InChI=1S/C4H5N3/c5-4-1-2-6-3-7-4/h1-3H,(H2,5,6,7)","OYRRZWATULMEPF-UHFFFAOYSA-N","?","24.9","spectrophotometric","a1/apparent","NH","acidic",18.4
"17906","N1(=C(N=CC=C1)N)","NC1N=CC=CN=1","InChI=1S/C4H5N3/c5-4-6-2-1-3-7-4/h1-3H,(H2,5,6,7)","LJXQPZWIHJMPQQ-UHFFFAOYSA-N","?","24.9","spectrophotometric","a1/apparent","NH","acidic",20.5