"Molecule name","OriginalSmiles","Canonical_QSARr","InChI_Code_QSARr","InChI Key_QSARr","Salt_Solvent (Concatenate)","temp","method","type","group","basicOrAcidic","pKa"
"17122","O=C(OCC)NC1(=NC=NC2(=C1NC=N2))","CCOC(=O)NC1=NC=NC2N=CNC=21","InChI=1S/C8H9N5O2/c1-2-15-8(14)13-7-5-6(10-3-9-5)11-4-12-7/h3-4H,2H2,1H3,(H2,9,10,11,12,13,14)","UZDTUTWDEFBFHJ-UHFFFAOYSA-N","?, ?",,"spectrophotometric","a2/apparent","?, ?","acidic",10.915
"12349","O=C([O-])C1(=C(O)C=CC=2(C1=CC=CC=2))","OC1=CC=C2C=CC=CC2=C1C(O)=O","InChI=1S/C11H8O3/c12-9-6-5-7-3-1-2-4-8(7)10(9)11(13)14/h1-6,12H,(H,13,14)","UPHOPMSGKZNELG-UHFFFAOYSA-N","?","25","potentiometric","apparent","OH","acidic",10.92
"15754","ClC2(=CC=C(NC(=S)C1(=CC=C(OC)C=C1))C=C2)","COC1C=CC(=CC=1)C(=S)NC1C=CC(Cl)=CC=1","InChI=1S/C14H12ClNOS/c1-17-13-8-2-10(3-9-13)14(18)16-12-6-4-11(15)5-7-12/h2-9H,1H3,(H,16,18)","RJJFSCNAZJXXCS-UHFFFAOYSA-N","?",,"spectrophotometric","a1/apparent","?","acidic",10.93
"16794","S(C2(=NC(SCC1(=CC=CC=C1))=C(N2)C3(=CC=CC=C3)))CC4(=CC=CC=C4)","C(SC1NC(=C(N=1)SCC1C=CC=CC=1)C1C=CC=CC=1)C1C=CC=CC=1","InChI=1S/C23H20N2S2/c1-4-10-18(11-5-1)16-26-22-21(20-14-8-3-9-15-20)24-23(25-22)27-17-19-12-6-2-7-13-19/h1-15H,16-17H2,(H,24,25)","DIKGAHDKPZHLRH-UHFFFAOYSA-N","?","25","spectrophotometric","a2/apparent","?","acidic",10.93
"14761","S1(C(=NC2(=C1C=CC=C2))NC(C3(=NC=CC=C3))C5(=C(O)C4(=NC=CC=C4C=C5)))","OC1C2=NC=CC=C2C=CC=1C(NC1=NC2C=CC=CC=2S1)C1C=CC=CN=1","InChI=1S/C22H16N4OS/c27-21-15(11-10-14-6-5-13-24-19(14)21)20(17-8-3-4-12-23-17)26-22-25-16-7-1-2-9-18(16)28-22/h1-13,20,27H,(H,25,26)","CQOIYZYJFVAALR-UHFFFAOYSA-N","?","30","potentiometric","a1/apparent","OH","acidic",10.94
"11754","ON=CC1(=CC=C(C)C=C1)","CC1=CC=C(CN=O)C=C1","InChI=1S/C8H9NO/c1-7-2-4-8(5-3-7)6-9-10/h2-5H,6H2,1H3","MTIJIQXUKXZESO-UHFFFAOYSA-N","?","20","potentiometric","a1/apparent","=NOH","acidic",10.94
"12764","OC1(=C(C=C(O)C=C1)C)","CC1C=C(O)C=CC=1O","InChI=1S/C7H8O2/c1-5-4-6(8)2-3-7(5)9/h2-4,8-9H,1H3","CNHDIAIOKMXOLK-UHFFFAOYSA-N","?, ?","22","mean from 4","a1/apparent","O-H, O-H","acidic",10.945
"15755","[Br]C2(=CC=C(NC(=S)C1(=CC=C(OC)C=C1))C=C2)","COC1C=CC(=CC=1)C(=S)NC1C=CC(Br)=CC=1","InChI=1S/C14H12BrNOS/c1-17-13-8-2-10(3-9-13)14(18)16-12-6-4-11(15)5-7-12/h2-9H,1H3,(H,16,18)","YGEURFOKRYVSCN-UHFFFAOYSA-N","?",,"spectrophotometric","a1/apparent","?","acidic",10.95
"13665","S=CNC1(=CC=C(C(=O)OC)C=C1)","COC(=O)C1C=CC(=CC=1)NC=S","InChI=1S/C9H9NO2S/c1-12-9(11)7-2-4-8(5-3-7)10-6-13/h2-6H,1H3,(H,10,13)","VSCMCHIGELKVMT-UHFFFAOYSA-N","?","20","potentiometric","a1/apparent","?","acidic",10.95
"12261","N#CC1(=CC=C(CC(C#N)C#N)C=C1)","N#CC1C=CC(CC(C#N)C#N)=CC=1","InChI=1S/C11H7N3/c12-6-10-3-1-9(2-4-10)5-11(7-13)8-14/h1-4,11H,5H2","VLHZCEGBKCZADN-UHFFFAOYSA-N","?","25","spectrophotometric","a1/thermodynamic","?","acidic",10.96
"14507","OC1(=C(C=CC=C1)CN(C)C)","CN(C)CC1C=CC=CC=1O","InChI=1S/C9H13NO/c1-10(2)7-8-5-3-4-6-9(8)11/h3-6,11H,7H2,1-2H3","FUIQBJHUESBZNU-UHFFFAOYSA-N","?","25","mean from 5","b2/apparent","O-H","acidic",10.96
"11847","OC(=CC(=C)C(C)(C)C)C","CC(O)=CC(=C)C(C)(C)C","InChI=1S/C9H16O/c1-7(6-8(2)10)9(3,4)5/h6,10H,1H2,2-5H3","SZGVEVOBNDYWQS-UHFFFAOYSA-N","?","20",,"a1/apparent","OH","acidic",10.97
"14470","O(C1(=CC=C(C=NO)C=C1))C","COC1C=CC(CN=O)=CC=1","InChI=1S/C8H9NO2/c1-11-8-4-2-7(3-5-8)6-9-10/h2-5H,6H2,1H3","XCZNCOHINUZFMC-UHFFFAOYSA-N","?","24","mean from 2","a1/apparent","=NOH","acidic",10.98
"11076","O=C2(NC1(=C(C=CC=C1)NC2=O))","O=C1NC2C=CC=CC=2NC1=O","InChI=1S/C8H6N2O2/c11-7-8(12)10-6-4-2-1-3-5(6)9-7/h1-4H,(H,9,11)(H,10,12)","ABJFBJGGLJVMAQ-UHFFFAOYSA-N","?, ?","20","mean from 3","a1/apparent","?, ?","acidic",10.985
"13440","N2(=C(NC(C)C)C1(=C(NN=C1)N=C2))","CC(C)NC1=NC=NC2NN=CC=21","InChI=1S/C8H11N5/c1-5(2)12-7-6-3-11-13-8(6)10-4-9-7/h3-5H,1-2H3,(H2,9,10,11,12,13)","VKYPWJLCQAENHE-UHFFFAOYSA-N","?","20","spectrophotometric","a2/apparent","?","acidic",10.99
"15578","[O-][N+]2(=C(N)C=1(N(C=NC=1N=C2)CC3(=CC=CC=C3)))","NC1C2=C(N=C[N+]=1[O-])N=CN2CC1C=CC=CC=1","InChI=1S/C12H11N5O/c13-11-10-12(15-8-17(11)18)14-7-16(10)6-9-4-2-1-3-5-9/h1-5,7-8H,6,13H2","FNQKXTIIESJQRP-UHFFFAOYSA-N","?","30","spectrophotometric","a1/apparent","?","acidic",11.0
"15956","OC=1(NN=C(C=1CCCCCCCCCC)C2(=CC=CC=C2))","CCCCCCCCCCC1=C(O)NN=C1C1C=CC=CC=1","InChI=1S/C19H28N2O/c1-2-3-4-5-6-7-8-12-15-17-18(20-21-19(17)22)16-13-10-9-11-14-16/h9-11,13-14H,2-8,12,15H2,1H3,(H2,20,21,22)","UZCGNBAKLRKACR-UHFFFAOYSA-N","?",,"potentiometric","a/apparent","?","acidic",11.0
"11239","N2(=C(N(C)C)C1(=C(NN=C1)N=C2))","CN(C)C1=NC=NC2NN=CC=21","InChI=1S/C7H9N5/c1-12(2)7-5-3-10-11-6(5)8-4-9-7/h3-4H,1-2H3,(H,8,9,10,11)","QWQODLSLHIZPTE-UHFFFAOYSA-N","?","20","spectrophotometric","a2/apparent","?","acidic",11.0
"10711","OC1(=C(N=CN(C)C)C=CC=C1)","CN(C)C=NC1C=CC=CC=1O","InChI=1S/C9H12N2O/c1-11(2)7-10-8-5-3-4-6-9(8)12/h3-7,12H,1-2H3","ZZLRBBAANDKQAJ-UHFFFAOYSA-N","?","20","potentiometric","a2/apparent","?","acidic",11.02
"13117","ON=CC1(=CC=CC=C1)","O=NCC1C=CC=CC=1","InChI=1S/C7H7NO/c9-8-6-7-4-2-1-3-5-7/h1-5H,6H2","VBXAEFHLULAXHG-UHFFFAOYSA-N","?, ?","25",,"apparent","?, =NOH","acidic",11.04
"16781","O=[N+]([O-])C1(=CC=C(CC(C(=O)OCC)C(=O)C)C=C1)","CC(=O)C(CC1C=CC(=CC=1)[N+]([O-])=O)=C(O)OCC","InChI=1S/C13H15NO5/c1-3-19-13(16)12(9(2)15)8-10-4-6-11(7-5-10)14(17)18/h4-7,16H,3,8H2,1-2H3","ISYFSIGLJVGAQI-UHFFFAOYSA-N","?","25","spectrophotometric","a1/thermodynamic","?","acidic",11.06
"14463","O(C1(=C(O)C(=CC=C1)CN))C","COC1C=CC=C(CN)C=1O","InChI=1S/C8H11NO2/c1-11-7-4-2-3-6(5-9)8(7)10/h2-4,10H,5,9H2,1H3","CLJHZQFAKIIMBA-UHFFFAOYSA-N","?","25","potentiometric","a2/thermodynamic","?","acidic",11.06
"14414","ClC1(=CC=C(NC(=S)C)C=C1)","CC(=S)NC1C=CC(Cl)=CC=1","InChI=1S/C8H8ClNS/c1-6(11)10-8-4-2-7(9)3-5-8/h2-5H,1H3,(H,10,11)","HCUVVJINIWWCCR-UHFFFAOYSA-N","?","20","potentiometric","a1/apparent","?","acidic",11.06
"15871","OC1(=C(C=CC=C1)C=NC3(=CC=C(C2(=CC=C(N)C=C2))C=C3))","NC1C=CC(=CC=1)C1C=CC(=CC=1)N=CC1C=CC=CC=1O","InChI=1S/C19H16N2O/c20-17-9-5-14(6-10-17)15-7-11-18(12-8-15)21-13-16-3-1-2-4-19(16)22/h1-13,22H,20H2","FIZTYKFBNMXWAF-UHFFFAOYSA-N","?","25","spectrophotometric","a3/apparent","?","acidic",11.07
"17759","O=C(NN)CC#N","N/N=C(/O)\CC#N","InChI=1S/C3H5N3O/c4-2-1-3(7)6-5/h1,5H2,(H,6,7)","HPHBOJANXDKUQD-UHFFFAOYSA-N","?","22","mean from 2","a1/apparent","NH","acidic",11.08
"12751","N2(=C1(N=CNC1=CC=C2))","C1NC2=CC=CN=C2N=1","InChI=1S/C6H5N3/c1-2-5-6(7-3-1)9-4-8-5/h1-4H,(H,7,8,9)","GAMYYCRTACQSBR-UHFFFAOYSA-N","?",,"potentiometric","a2/apparent","?","acidic",11.08
"15268","O=C([O-])C=CC1(=CC(=C(O)C(=C1)C(C)(C)C)C(C)(C)C)","CC(C)(C)C1=CC(=CC(=C1O)C(C)(C)C)C=CC(O)=O","InChI=1S/C17H24O3/c1-16(2,3)12-9-11(7-8-14(18)19)10-13(15(12)20)17(4,5)6/h7-10,20H,1-6H3,(H,18,19)","CTYWXRDQWMRIIM-UHFFFAOYSA-N","?","25","spectrophotometric","a1/apparent","H","acidic",11.1
"12624","ON=C(C(=NO)C)CO","CC(N=O)C(CO)N=O","InChI=1S/C4H8N2O3/c1-3(5-8)4(2-7)6-9/h3-4,7H,2H2,1H3","LARIWXLTTIUHOU-UHFFFAOYSA-N","?, ?","25","mean from 2","a1/apparent","?, ?","acidic",11.1
"13784","O=C2(N(C=1(N=CNC=1CN2))C)","CN1C(=O)NCC2NC=NC1=2","InChI=1S/C6H8N4O/c1-10-5-4(8-3-9-5)2-7-6(10)11/h3H,2H2,1H3,(H,7,11)(H,8,9)","MYLDZDVBIMWMNX-UHFFFAOYSA-N","?","25",,"a/apparent","?","acidic",11.1
"13981","N2(=C(N)C1(=C(NN=C1C)N=C2))","CC1=NNC2N=CN=C(N)C=21","InChI=1S/C6H7N5/c1-3-4-5(7)8-2-9-6(4)11-10-3/h2H,1H3,(H3,7,8,9,10,11)","VQXHGXDVBHJJJU-UHFFFAOYSA-N","?","20","spectrophotometric","a2/apparent","?","acidic",11.11
"17883","O=C1(C=CNC=C1)","O=C1CC=NC=C1","InChI=1S/C5H5NO/c7-5-1-3-6-4-2-5/h1,3-4H,2H2","MPOYBFYHRQBZPM-UHFFFAOYSA-N","?","25","mean from 2","a1/apparent","N-H","acidic",11.12
"10948","O=C2(C1(C(=O)CCCC1CCC2))","OC1=CCCC2CCC=C(O)C12","InChI=1S/C10H14O2/c11-8-5-1-3-7-4-2-6-9(12)10(7)8/h5-7,10-12H,1-4H2","KWFGLYFNQBCBBU-UHFFFAOYSA-N","?","20","spectrophotometric","a/apparent","?","acidic",11.13
"17486","SC(C)(C)C","CC(C)(C)S","InChI=1S/C4H10S/c1-4(2,3)5/h5H,1-3H3","WMXCDAVJEZZYLT-UHFFFAOYSA-N","?","20",,"apparent","?","acidic",11.14
"10568","OC1(=C(C=C(C)C=C1C)C(C)C)","CC1=CC(C)=CC(C(C)C)=C1O","InChI=1S/C11H16O/c1-7(2)10-6-8(3)5-9(4)11(10)12/h5-7,12H,1-4H3","OYVVLQHYLBQLEI-UHFFFAOYSA-N","?","20","spectrophotometric","a1/thermodynamic","?","acidic",11.18
"16133","ClC2(=CC=C(C(=S)NC1(=CC=C(C)C=C1))C=C2)","CC1C=CC(=CC=1)NC(=S)C1C=CC(Cl)=CC=1","InChI=1S/C14H12ClNS/c1-10-2-8-13(9-3-10)16-14(17)11-4-6-12(15)7-5-11/h2-9H,1H3,(H,16,17)","ZFEYOZXIFSZMTR-UHFFFAOYSA-N","?",,"spectrophotometric","a1/apparent","?","acidic",11.18
"15700","S=C(NC1(=CC=CC=C1))C2(=CC=C(N(C)C)C=C2)","CN(C)C1C=CC(=CC=1)C(=S)NC1C=CC=CC=1","InChI=1S/C15H16N2S/c1-17(2)14-10-8-12(9-11-14)15(18)16-13-6-4-3-5-7-13/h3-11H,1-2H3,(H,16,18)","YHLDLUMVWQSJHW-UHFFFAOYSA-N","?","20","potentiometric","a1/apparent","?","acidic",11.18
"17517","N#CCC#N","N#CCC#N","InChI=1S/C3H2N2/c4-2-1-3-5/h1H2","CUONGYYJJVDODC-UHFFFAOYSA-N","?","25","mean from 2","a1/apparent","CH-H","acidic",11.19
"14902","S(=O)(=O)(NCCC(=O)[O-])C1(=CC=C(C)C=C1)","CC1C=CC(=CC=1)S(=O)(=O)NCC=C(O)O","InChI=1S/C10H13NO4S/c1-8-2-4-9(5-3-8)16(14,15)11-7-6-10(12)13/h2-6,11-13H,7H2,1H3","AWUVUZWMHHZXRZ-UHFFFAOYSA-N","?","25","potentiometric","a1/apparent","SO2-NH-","acidic",11.2
"16524","O=C1(NC(=O)CC(C1)CC(O)CC(=O)C(C=C(C=C)C)C)","CC(C=C(C)C=C)=C(O)CC(O)CC1CC(O)=NC(O)=C1","InChI=1S/C16H23NO4/c1-4-10(2)5-11(3)14(19)9-13(18)6-12-7-15(20)17-16(21)8-12/h4-5,7,12-13,18-20H,1,6,8-9H2,2-3H3,(H,17,21)","XBQQCLMBIMCLTJ-UHFFFAOYSA-N","?",,,"a/apparent","?","acidic",11.2
"17215","N3(=CC(C1(=NC=2(C=CC=CC=2(N1))))=CC=C3)","C1=NC=CC=C1C1NC2C=CC=CC=2N=1","InChI=1S/C12H9N3/c1-2-6-11-10(5-1)14-12(15-11)9-4-3-7-13-8-9/h1-8H,(H,14,15)","BOUOQESVDURNSB-UHFFFAOYSA-N","?","25","spectrophotometric","a3/apparent","NH","acidic",11.21
"15655","[Br]CC(OC1(=CC(=CC=C1)C))(O)C2(=CC=CC=C2)","CC1C=C(C=CC=1)OC(O)(CBr)C1C=CC=CC=1","InChI=1S/C15H15BrO2/c1-12-6-5-9-14(10-12)18-15(17,11-16)13-7-3-2-4-8-13/h2-10,17H,11H2,1H3","YCTXBLKUMSIHGD-UHFFFAOYSA-N","?","25",,"a1/apparent","?","acidic",11.21
"12409","O=C1(NC(=O)CC(N1)C2(=CC=CC=C2))","OC1CC(NC(=O)N=1)C1C=CC=CC=1","InChI=1S/C10H10N2O2/c13-9-6-8(11-10(14)12-9)7-4-2-1-3-5-7/h1-5,8H,6H2,(H2,11,12,13,14)","GTYVCYXIFVPPIP-UHFFFAOYSA-N","?","25","spectrophotometric","a1/thermodynamic","OCNHCO","acidic",11.22
"10831","OC1(=C(C=C(C)C=C1)CN(C)C)","CC1C=CC(O)=C(CN(C)C)C=1","InChI=1S/C10H15NO/c1-8-4-5-10(12)9(6-8)7-11(2)3/h4-6,12H,7H2,1-3H3","HYVZRUQCAHFECM-UHFFFAOYSA-N","?","25","potentiometric","a1/thermodynamic","OH","acidic",11.22
"14621","OC1(=CC=C(CCCCC(C)(C)C)C=C1)","CC(C)(C)CCCCC1C=CC(O)=CC=1","InChI=1S/C14H22O/c1-14(2,3)11-5-4-6-12-7-9-13(15)10-8-12/h7-10,15H,4-6,11H2,1-3H3","LVZOXWGDTAZDMG-UHFFFAOYSA-N","?","25","potentiometric","a1/thermodynamic","OH","acidic",11.22
"12766","O=C1(C(=O)CCCC1C)","CC1CCCC(=O)C=1O","InChI=1S/C7H10O2/c1-5-3-2-4-6(8)7(5)9/h9H,2-4H2,1H3","JVQYXBKQKZPLBC-UHFFFAOYSA-N","?","20","potentiometric","a/apparent","?","acidic",11.23
"13354","S=C1(N(C(=O)C2(N1)(CCCCC2))C)","CN1C(=O)C2(CCCCC2)NC1=S","InChI=1S/C9H14N2OS/c1-11-7(12)9(10-8(11)13)5-3-2-4-6-9/h2-6H2,1H3,(H,10,13)","GRRSNSGOJQBQQN-UHFFFAOYSA-N","?","18","spectrophotometric","a/apparent","?","acidic",11.23
"11083","OC=2(C1(=NC=CC=C1C(N)=CC=2))","NC1=CC=C(O)C2=NC=CC=C21","InChI=1S/C9H8N2O/c10-7-3-4-8(12)9-6(7)2-1-5-11-9/h1-5,12H,10H2","YDEUKNRKEYICTH-UHFFFAOYSA-N","?","20",,"a2/apparent","?","acidic",11.24
"10397","ON=C(C(=NO)C)C","CC(N=O)C(C)N=O","InChI=1S/C4H8N2O2/c1-3(5-7)4(2)6-8/h3-4H,1-2H3","WTPHDERCPWEBOS-UHFFFAOYSA-N","?, ?","24","mean from 2","a1/apparent","?, ?","acidic",11.25
"11023","O=C2(N(C=1(N=CNC=1CN2C))C)","CN1C(=O)N(C)CC2NC=NC1=2","InChI=1S/C7H10N4O/c1-10-3-5-6(9-4-8-5)11(2)7(10)12/h4H,3H2,1-2H3,(H,8,9)","QUMPIYYUTFNDGJ-UHFFFAOYSA-N","?","25",,"a/apparent","?","acidic",11.25
"11653","S=CNC1(=CC=C(F)C=C1)","FC1=CC=C(C=C1)NC=S","InChI=1S/C7H6FNS/c8-6-1-3-7(4-2-6)9-5-10/h1-5H,(H,9,10)","JZKZBMVYQUYYET-UHFFFAOYSA-N","?","20","potentiometric","a1/apparent","?","acidic",11.25
"16754","O(C1(=C(C(OC)=CC=C1)C2(=NC=3(N=CC=CC=3(N2)))))C","COC1C=CC=C(OC)C=1C1NC2C=CC=NC=2N=1","InChI=1S/C14H13N3O2/c1-18-10-6-3-7-11(19-2)12(10)14-16-9-5-4-8-15-13(9)17-14/h3-8H,1-2H3,(H,15,16,17)","HHVNFBCKFHEQLH-UHFFFAOYSA-N","?","25","spectrophotometric","a1/apparent","?","acidic",11.26
"16178","S=C(NC1(=CC=CC=C1))C2(=CC=C(OC)C=C2)","COC1C=CC(=CC=1)C(=S)NC1C=CC=CC=1","InChI=1S/C14H13NOS/c1-16-13-9-7-11(8-10-13)14(17)15-12-5-3-2-4-6-12/h2-10H,1H3,(H,15,17)","RKWKBJCBFSUJDX-UHFFFAOYSA-N","?","20","mean from 2","a1/apparent","?","acidic",11.27
"11241","N2(=C(NC)C1(=C(NN=C1)N=C2C))","CC1N=C(NC)C2C=NNC=2N=1","InChI=1S/C7H9N5/c1-4-10-6(8-2)5-3-9-12-7(5)11-4/h3H,1-2H3,(H2,8,9,10,11,12)","KUQUGMDJBPPLQJ-UHFFFAOYSA-N","?","20","spectrophotometric","a2/apparent","?","acidic",11.27
"13340","OC=1(N(N=C(C=1)C)C2(=CC=CC=C2))","CC1C=C(O)N(N=1)C1C=CC=CC=1","InChI=1S/C10H10N2O/c1-8-7-10(13)12(11-8)9-5-3-2-4-6-9/h2-7,13H,1H3","PLVBQEFRONZLHO-UHFFFAOYSA-N","?",,"potentiometric","b/apparent","?","acidic",11.3
"12446","OC=1(N(N=C(C=1C)C)C2(=CC=CC=C2))","CC1=C(O)N(N=C1C)C1C=CC=CC=1","InChI=1S/C11H12N2O/c1-8-9(2)12-13(11(8)14)10-6-4-3-5-7-10/h3-7,14H,1-2H3","WWGWMNUTPYAALX-UHFFFAOYSA-N","?",,"potentiometric","b/apparent","?","acidic",11.3
"17091","ON=C(C1(=CC=CC=C1))C2(=CC=CC=C2)","O=NC(C1C=CC=CC=1)C1C=CC=CC=1","InChI=1S/C13H11NO/c15-14-13(11-7-3-1-4-8-11)12-9-5-2-6-10-12/h1-10,13H","HFIJNEVWEHTIIL-UHFFFAOYSA-N","?","25",,"apparent","?","acidic",11.3
"13986","N2(=C(N)C1(=C(NN=C1)N=C2C))","CC1=NC2NN=CC=2C(N)=N1","InChI=1S/C6H7N5/c1-3-9-5(7)4-2-8-11-6(4)10-3/h2H,1H3,(H3,7,8,9,10,11)","BBEHITOHXPPLSS-UHFFFAOYSA-N","?","20","spectrophotometric","a2/apparent","?","acidic",11.3
"17018","S=C2(NC(=O)C(C1(C=CCCC1))C([N-]2)=O)","OC1=NC(=S)NC(=O)C1C1CCCC=C1","InChI=1S/C10H12N2O2S/c13-8-7(6-4-2-1-3-5-6)9(14)12-10(15)11-8/h2,4,6-7H,1,3,5H2,(H2,11,12,13,14,15)","KOUSLPSCTHKOII-UHFFFAOYSA-N","?","28","spectrophotometric","a2/apparent","?","acidic",11.31
"12580","O=C(C(C(=O)C)CC)C","CCC(C(=C)O)C(=C)O","InChI=1S/C7H12O2/c1-4-7(5(2)8)6(3)9/h7-9H,2-4H2,1H3","OVNCXKPXUWATNV-UHFFFAOYSA-N","?","20",,"a/apparent","?","acidic",11.33
"12501","OC=2(C1(=NC=CC=C1C=CC=2C=CC))","CC=CC1C=CC2=CC=CN=C2C=1O","InChI=1S/C12H11NO/c1-2-4-10-7-6-9-5-3-8-13-11(9)12(10)14/h2-8,14H,1H3","MWNGBZCMWYKIDR-UHFFFAOYSA-N","?","25",,"a2/apparent","O-H","acidic",11.34
"10374","ON=C(N)C(=NO)N","NC(N=O)C(N)N=O","InChI=1S/C2H6N4O2/c3-1(5-7)2(4)6-8/h1-2H,3-4H2","ZWXULJYESWUJAD-UHFFFAOYSA-N","?","20","mean from 2","thermodynamic","NOH","acidic",11.34
"10723","ON=CC1(=CC=C(N(C)C)C=C1)","CN(C)C1C=CC(CN=O)=CC=1","InChI=1S/C9H12N2O/c1-11(2)9-5-3-8(4-6-9)7-10-12/h3-6H,7H2,1-2H3","WZXHVSBKNZINNX-UHFFFAOYSA-N","?","22","mean from 2","apparent","?","acidic",11.34
"16179","S=C(NC1(=CC=C(OC)C=C1))C2(=CC=CC=C2)","COC1C=CC(=CC=1)NC(=S)C1C=CC=CC=1","InChI=1S/C14H13NOS/c1-16-13-9-7-12(8-10-13)15-14(17)11-5-3-2-4-6-11/h2-10H,1H3,(H,15,17)","HGBOOZXXUFQBLX-UHFFFAOYSA-N","?","20","mean from 2","a1/apparent","?","acidic",11.36
"17717","O(C(=NO)C)CC","CCOC(C)N=O","InChI=1S/C4H9NO2/c1-3-7-4(2)5-6/h4H,3H2,1-2H3","KXJPYFLIHREBKR-UHFFFAOYSA-N","?","25","potentiometric","a1/apparent","H(1+)","acidic",11.37
"13338","OC=1(NN=C(C=1C2(=CC=CC=C2))C)","CC1=NNC(O)=C1C1C=CC=CC=1","InChI=1S/C10H10N2O/c1-7-9(10(13)12-11-7)8-5-3-2-4-6-8/h2-6H,1H3,(H2,11,12,13)","FTUPSXHUCWFVNH-UHFFFAOYSA-N","?",,"potentiometric","b/apparent","?","acidic",11.4
"16757","SC(=C(N(C=O)CC1(=C(N=C(C)N=C1)N))C)CCO","CC1N=CC(CN(C=O)C(C)=C(S)CCO)=C(N)N=1","InChI=1S/C12H18N4O2S/c1-8(11(19)3-4-17)16(7-18)6-10-5-14-9(2)15-12(10)13/h5,7,17,19H,3-4,6H2,1-2H3,(H2,13,14,15)","IDPJGITXELWXRN-UHFFFAOYSA-N","?","25","spectrophotometric","a1/apparent","?","acidic",11.4
"14981","OC=1(N(N=C2(C=1CCCC2))C3(=CC=CC=C3))","OC1=C2CCCCC2=NN1C1C=CC=CC=1","InChI=1S/C13H14N2O/c16-13-11-8-4-5-9-12(11)14-15(13)10-6-2-1-3-7-10/h1-3,6-7,16H,4-5,8-9H2","BEORIYFJWKHSQW-UHFFFAOYSA-N","?",,"potentiometric","b/apparent","?","acidic",11.4
"15093","OC=1(N(N=C(C=1CCC)C)C2(=CC=CC=C2))","CC1=NN(C(O)=C1CCC)C1C=CC=CC=1","InChI=1S/C13H16N2O/c1-3-7-12-10(2)14-15(13(12)16)11-8-5-4-6-9-11/h4-6,8-9,16H,3,7H2,1-2H3","UQMQABSDNUTMKV-UHFFFAOYSA-N","?",,"potentiometric","b/apparent","?","acidic",11.4
"16114","OC=1(N(N=C(C=1CCCC)C)C2(=CC=CC=C2))","CC1=NN(C(O)=C1CCCC)C1C=CC=CC=1","InChI=1S/C14H18N2O/c1-3-4-10-13-11(2)15-16(14(13)17)12-8-6-5-7-9-12/h5-9,17H,3-4,10H2,1-2H3","HZYZDKVUIGKRCW-UHFFFAOYSA-N","?",,"potentiometric","b/apparent","?","acidic",11.4
"10146","O=C1(N(CC(N1)=O)C)","CN1CC(O)=NC1=O","InChI=1S/C4H6N2O2/c1-6-2-3(7)5-4(6)8/h2H2,1H3,(H,5,7,8)","RHYBFKMFHLPQPH-UHFFFAOYSA-N","?","25",,"a1/apparent","N-H","acidic",11.4
"13443","S(C1(=NC(NC)=C2(C=NNC2(=N1))))C","CNC1N=C(N=C2NN=CC2=1)SC","InChI=1S/C7H9N5S/c1-8-5-4-3-9-12-6(4)11-7(10-5)13-2/h3H,1-2H3,(H2,8,9,10,11,12)","TYXJRBVEHKTNBE-UHFFFAOYSA-N","?","20","spectrophotometric","a2/apparent","?","acidic",11.4
"14681","S(=O)(=O)(NCC(=O)[O-])C1(=CC=C(C)C=C1)","CC1=CC=C(C=C1)S(=O)(=O)N=CC(O)O","InChI=1S/C9H11NO4S/c1-7-2-4-8(5-3-7)15(13,14)10-6-9(11)12/h2-6,9,11-12H,1H3","NQXTWKAQZFYCAM-UHFFFAOYSA-N","?","25","potentiometric","a1/apparent","SO2-NH-","acidic",11.4
"11088","OC=1(NN=C(C=1)C2(=CC=CC=C2))","OC1=CC(=NN1)C1C=CC=CC=1","InChI=1S/C9H8N2O/c12-9-6-8(10-11-9)7-4-2-1-3-5-7/h1-6H,(H2,10,11,12)","YLHCQNBWOZXHIR-UHFFFAOYSA-N","?",,"potentiometric","b/apparent","?","acidic",11.4
"12145","S=C1(N=C([O-])C(C(CCC)C)C(N1)=O)","CC(CCC)C1C(O)=NC(=S)N=C1O","InChI=1S/C9H14N2O2S/c1-3-4-5(2)6-7(12)10-9(14)11-8(6)13/h5-6H,3-4H2,1-2H3,(H2,10,11,12,13,14)","LPLXQFNRPIWUOF-UHFFFAOYSA-N","?","28","spectrophotometric","a2/apparent","?","acidic",11.41
"17750","O=C([O-])C(=NO)C","CC(N=O)C(O)=O","InChI=1S/C3H5NO3/c1-2(4-7)3(5)6/h2H,1H3,(H,5,6)","NODMSFUNHCUVST-UHFFFAOYSA-N","?","20","potentiometric","a2/apparent","?","acidic",11.43
"10238","O=C1(NC(=O)CCC1)","OC1CCC=C(O)N=1","InChI=1S/C5H7NO2/c7-4-2-1-3-5(8)6-4/h2,7H,1,3H2,(H,6,8)","DPIFZCKORVTVNQ-UHFFFAOYSA-N","?","25","potentiometric","a/thermodynamic","?","acidic",11.43
"12266","O=[N+]([O-])C1(=C(C=CC(=C1)C#N)CC#N)","N#CC1=CC(=C(CC#N)C=C1)[N+]([O-])=O","InChI=1S/C9H5N3O2/c10-4-3-8-2-1-7(6-11)5-9(8)12(13)14/h1-2,5H,3H2","GWIYLPBYSAIFTC-UHFFFAOYSA-N","?","20","spectrophotometric","a1/apparent","CH","acidic",11.43
"15145","O=C(C1(=CC=CC=C1))C([N+]2(=CC=CC=C2))C","CC(=C(O)C1C=CC=CC=1)[N+]1C=CC=CC=1","InChI=1S/C14H13NO/c1-12(15-10-6-3-7-11-15)14(16)13-8-4-2-5-9-13/h2-11H,1H3/p+1","NPOMQUBHPGVITN-UHFFFAOYSA-O","?","45 - 25","spectrophotometric","a1/apparent","CH-CO-Ph","acidic",11.465
"13643","O(C1(=CC(=C(O)C=C1)CN(C)C))C","COC1C=CC(O)=C(CN(C)C)C=1","InChI=1S/C10H15NO2/c1-11(2)7-8-6-9(13-3)4-5-10(8)12/h4-6,12H,7H2,1-3H3","DALDKLLZFGAGLB-UHFFFAOYSA-N","?","25","potentiometric","a1/thermodynamic","OH","acidic",11.48
"14698","OC1(=C(C=C(C(C)(C)C)C=C1)CN(C)C)","CN(C)CC1C=C(C=CC=1O)C(C)(C)C","InChI=1S/C13H21NO/c1-13(2,3)11-6-7-12(15)10(8-11)9-14(4)5/h6-8,15H,9H2,1-5H3","AOLMGCHTFOOEDQ-UHFFFAOYSA-N","?","25","potentiometric","a1/thermodynamic","OH","acidic",11.48
"16637","O(C1(=CC(=C(O)C=C1)CN(C)C))CC2(=CC=CC=C2)","CN(C)CC1C=C(C=CC=1O)OCC1C=CC=CC=1","InChI=1S/C16H19NO2/c1-17(2)11-14-10-15(8-9-16(14)18)19-12-13-6-4-3-5-7-13/h3-10,18H,11-12H2,1-2H3","QWBCDUPBBLAFNL-UHFFFAOYSA-N","?","25","potentiometric","a1/thermodynamic","OH","acidic",11.48
"17353","S(C(O)O)CC","CCSC(O)O","InChI=1S/C3H8O2S/c1-2-6-3(4)5/h3-5H,2H2,1H3","UMFMVSNLYKGGPJ-UHFFFAOYSA-N","?","25",,"a1/apparent","OH","acidic",11.48
"13553","ClC1(=CC=C(CC(C#N)C#N)C=C1)","N#CC(CC1C=CC(Cl)=CC=1)C#N","InChI=1S/C10H7ClN2/c11-10-3-1-8(2-4-10)5-9(6-12)7-13/h1-4,9H,5H2","KZVZSAZGEKLWOJ-UHFFFAOYSA-N","?","25","spectrophotometric","a1/thermodynamic","?","acidic",11.49
"15126","S=C(NC1(=CC=CC=C1))C2(=CC=C(C)C=C2)","CC1C=CC(=CC=1)C(=S)NC1C=CC=CC=1","InChI=1S/C14H13NS/c1-11-7-9-12(10-8-11)14(16)15-13-5-3-2-4-6-13/h2-10H,1H3,(H,15,16)","GODKPDAXQDHPDO-UHFFFAOYSA-N","?",,"spectrophotometric","a1/apparent","?","acidic",11.5