"Molecule name","OriginalSmiles","Canonical_QSARr","InChI_Code_QSARr","InChI Key_QSARr","Salt_Solvent (Concatenate)","temp","method","type","group","basicOrAcidic","pKa"
"17602","O=C(O)CCCC","CCCC=C(O)O","InChI=1S/C5H10O2/c1-2-3-4-5(6)7/h4,6-7H,2-3H2,1H3","MLDWIYATQASALW-UHFFFAOYSA-N","?","23","mean from 5","a1/apparent","COOH","acidic",4.82
"10535","S1(SCCC1CCCCC(=O)O)","OC(O)=CCCCC1CCSS1","InChI=1S/C8H14O2S2/c9-8(10)4-2-1-3-7-5-6-11-12-7/h4,7,9-10H,1-3,5-6H2","AROGGKVVQHKTAT-UHFFFAOYSA-N","?","25","mean from 2","a1/thermodynamic","COOH","acidic",4.82
"10545","S(C=CC(=O)O)C1(CCCCC1)","OC(=O)C=CSC1CCCCC1","InChI=1S/C9H14O2S/c10-9(11)6-7-12-8-4-2-1-3-5-8/h6-8H,1-5H2,(H,10,11)","WUHRPRJUTNWATN-UHFFFAOYSA-N","?, ?","20","potentiometric","a/thermodynamic","?, ?","acidic",4.825
"17490","O=C(O)CC","CC=C(O)O","InChI=1S/C3H6O2/c1-2-3(4)5/h2,4-5H,1H3","JNLTYWDDGFTRSX-UHFFFAOYSA-N","?","23","mean from 7","a1/apparent","COOH","acidic",4.83
"17272","O=C(O)C1(CC1)","OC(O)=C1CC1","InChI=1S/C4H6O2/c5-4(6)3-1-2-3/h5-6H,1-2H2","ZUCHQAFENKIYAK-UHFFFAOYSA-N","?","25","potentiometric","a/thermodynamic","?","acidic",4.83
"12575","O=C(O)CCC(C)(C)C","CC(C)(C)CC=C(O)O","InChI=1S/C7H14O2/c1-7(2,3)5-4-6(8)9/h4,8-9H,5H2,1-3H3","ZJVJNNFUJJCTOI-UHFFFAOYSA-N","?","25",,"a1/thermodynamic","COOH","acidic",4.83
"10353","O=C(O)CC(CC)C","CCC(C)C=C(O)O","InChI=1S/C6H12O2/c1-3-5(2)4-6(7)8/h4-5,7-8H,3H2,1-2H3","PTAMVZASHRYMQR-UHFFFAOYSA-N","?","18","potentiometric","apparent","?","acidic",4.84
"10350","O=C(O)CCC(C)C","CC(C)CC=C(O)O","InChI=1S/C6H12O2/c1-5(2)3-4-6(7)8/h4-5,7-8H,3H2,1-2H3","VBJZLOGJBQCFRJ-UHFFFAOYSA-N","?","24","mean from 2","apparent","?","acidic",4.84
"11696","O=C(O)C1(=CC=C(N)C=C1)","NC1=CC=C(C=C1)C(O)=O","InChI=1S/C7H7NO2/c8-6-3-1-5(2-4-6)7(9)10/h1-4H,8H2,(H,9,10)","ALYNCZNDIQEVRV-UHFFFAOYSA-N","?","25","mean from 11","a1/apparent","?","acidic",4.84
"17576","N1(=NNC=N1)","C1NN=NN=1","InChI=1S/CH2N4/c1-2-4-5-3-1/h1H,(H,2,3,4,5)","KJUGUADJHNHALS-UHFFFAOYSA-N","?","25","mean from 3","a1/apparent","N-H","acidic",4.84
"14995","OC=3(C2(=NC=1(C(=CC=CC=1)[N+](=C2C=CC=3)C)))","C[N+]1C2=CC=CC=C2N=C2C(O)=CC=CC=12","InChI=1S/C13H10N2O/c1-15-10-6-3-2-5-9(10)14-13-11(15)7-4-8-12(13)16/h2-8H,1H3/p+1","YNCMLFHHXWETLD-UHFFFAOYSA-O","?","30",,"a/apparent","?","acidic",4.85
"10343","O=C(O)CCCCC","CCCCC=C(O)O","InChI=1S/C6H12O2/c1-2-3-4-5-6(7)8/h5,7-8H,2-4H2,1H3","XRVUFNZZLJWIBD-UHFFFAOYSA-N","?","18","mean from 2","apparent","?","acidic",4.85
"12275","N#CCCN(C1(=NN=NN1))CCC#N","N#CCCN(CCC#N)C1NN=NN=1","InChI=1S/C7H9N7/c8-3-1-5-14(6-2-4-9)7-10-12-13-11-7/h1-2,5-6H2,(H,10,11,12,13)","SFZBBCWZAPTNNW-UHFFFAOYSA-N","?",,"potentiometric","a/apparent","?","acidic",4.85
"11944","O=C(O)C1(C2(CCC1CC2))","OC(O)=C1C2CCC1CC2","InChI=1S/C8H12O2/c9-8(10)7-5-1-2-6(7)4-3-5/h5-6,9-10H,1-4H2","WRJJAQWRGUKYOP-UHFFFAOYSA-N","?","25","potentiometric","a1/apparent","?","acidic",4.85
"17402","O=[N+]([O-])CC#N","N#CC[N+]([O-])=O","InChI=1S/C2H2N2O2/c3-1-2-4(5)6/h2H2","DWBOSISZPCOPFS-UHFFFAOYSA-N","?","27","conductometric","a/apparent","?","acidic",4.86
"10617","O=C(O)CCC1(CCC(O)CC1)","OC1CCC(CC=C(O)O)CC1","InChI=1S/C9H16O3/c10-8-4-1-7(2-5-8)3-6-9(11)12/h6-8,10-12H,1-5H2","YZWCFJLFQPRCPV-UHFFFAOYSA-N","?","25","conductometric","apparent","?","acidic",4.86
"12485","O=C(O)CCC=2(C1(=C(C=CC=C1)NC=2))","OC(O)=CCC1=CNC2C=CC=CC=21","InChI=1S/C11H11NO2/c13-11(14)6-5-8-7-12-10-4-2-1-3-9(8)10/h1-4,6-7,12-14H,5H2","XELAJYCSJXBJQR-UHFFFAOYSA-N","?",,"mean from 2","a/apparent","?","acidic",4.87
"16953","[Se](=O)(O)C2(=CC(C1(=CC=CC=C1))=CC=C2)","O[Se](=O)C1=CC(=CC=C1)C1C=CC=CC=1","InChI=1S/C12H10O2Se/c13-15(14)12-8-4-7-11(9-12)10-5-2-1-3-6-10/h1-9H,(H,13,14)","HOUHRXMXAKQBHV-UHFFFAOYSA-N","?","25","potentiometric","a/apparent","?","acidic",4.87
"12745","N2(=C1(N=NNC1=CN=C2))","C1N=CN=C2N=NNC2=1","InChI=1S/C4H3N5/c1-3-4(6-2-5-1)8-9-7-3/h1-2H,(H,5,6,7,8,9)","GIIGHSIIKVOWKZ-UHFFFAOYSA-N","?","20","mean from 2","a2/apparent","?","acidic",4.88
"14151","O=C(O)C1(CC(C(=O)O)CC1)","OC(O)=C1CC(CC1)=C(O)O","InChI=1S/C7H10O4/c8-6(9)4-1-2-5(3-4)7(10)11/h8-11H,1-3H2","CEYFJDSQAXDVKP-UHFFFAOYSA-N","?, ?","24","mean from 2","1/thermodynamic","?, ?","acidic",4.88
"14337","O=[N+]([O-])NC1(=CC=C(C)C=C1)","CC1=CC=C(C=C1)N[N+]([O-])=O","InChI=1S/C7H8N2O2/c1-6-2-4-7(5-3-6)8-9(10)11/h2-5,8H,1H3","AGKHYRYULQFGQA-UHFFFAOYSA-N","?","15","mean from 2","a1/thermodynamic","N-H","acidic",4.88
"11379","O=C(O)C1(CC(CCC1)C)","CC1CC(CCC1)=C(O)O","InChI=1S/C8H14O2/c1-6-3-2-4-7(5-6)8(9)10/h6,9-10H,2-5H2,1H3","RSCYPZZKPYWILB-UHFFFAOYSA-N","?","25","conductometric","a/thermodynamic","?","acidic",4.88
"11836","O=C(O)CCCC(C)(C)C","CC(C)(C)CCC=C(O)O","InChI=1S/C8H16O2/c1-8(2,3)6-4-5-7(9)10/h5,9-10H,4,6H2,1-3H3","GTQXHFSWHOPZQI-UHFFFAOYSA-N","?","25",,"a1/thermodynamic","COOH","acidic",4.88
"14176","O=C(O)C1(C(CCCC1C)C)","CC1CCCC(C)C1=C(O)O","InChI=1S/C9H16O2/c1-6-4-3-5-7(2)8(6)9(10)11/h6-7,10-11H,3-5H2,1-2H3","IURKAIZYUDPAIQ-UHFFFAOYSA-N","?","25",,"apparent","?","acidic",4.88
"12276","O=C(O)CCCCCCCCCCC","CCCCCCCCCCC=C(O)O","InChI=1S/C12H24O2/c1-2-3-4-5-6-7-8-9-10-11-12(13)14/h11,13-14H,2-10H2,1H3","NFJULGPDPMXBML-UHFFFAOYSA-N","?","25",,"a1/apparent","COOH","acidic",4.89
"11358","S(=O)(=O)(NC(=O)N)CC(=O)NC","C/N=C(/O)\CS(=O)(=O)NC(N)=O","InChI=1S/C4H9N3O4S/c1-6-3(8)2-12(10,11)7-4(5)9/h2H2,1H3,(H,6,8)(H3,5,7,9)","HTUFVCKXZROIOG-UHFFFAOYSA-N","?","25","potentiometric","a1/apparent","?","acidic",4.89
"12771","O=C(O)C1(CCCCC1)","OC(O)=C1CCCCC1","InChI=1S/C7H12O2/c8-7(9)6-4-2-1-3-5-6/h8-9H,1-5H2","RBQQVWNGYJRKKL-UHFFFAOYSA-N","?","25","mean from 2","a1/thermodynamic","COOH","acidic",4.89
"11947","O=C(O)C12(CC(CC1)CC2)","OC(=O)C12CC(CC1)CC2","InChI=1S/C8H12O2/c9-7(10)8-3-1-6(5-8)2-4-8/h6H,1-5H2,(H,9,10)","LKXGYGYFPTZHLC-UHFFFAOYSA-N","?","25","potentiometric","a1/apparent","?","acidic",4.89
"11384","O=C(O)C1(C(CCCC1)C)","CC1CCCCC1=C(O)O","InChI=1S/C8H14O2/c1-6-4-2-3-5-7(6)8(9)10/h6,9-10H,2-5H2,1H3","HRADQOPUYQSKSH-UHFFFAOYSA-N","?, ?","25","conductometric","a/thermodynamic","?, ?","acidic",4.890000000000001
"17057","O=C1(NC(OC2(=C1C=CC=C2))CC(=O)O)","OC(O)=CC1NC(=O)C2C=CC=CC=2O1","InChI=1S/C10H9NO4/c12-9(13)5-8-11-10(14)6-3-1-2-4-7(6)15-8/h1-5,8,12-13H,(H,11,14)","QVTBQNNWFXZOJP-UHFFFAOYSA-N","?",,"potentiometric","a/apparent","?","acidic",4.9
"15284","O=C1(C(O)=C(C(=O)C2(=C1C=CC=C2))CC3(=CC=CC=C3))","OC1=C(CC2C=CC=CC=2)C(=O)C2C=CC=CC=2C1=O","InChI=1S/C17H12O3/c18-15-12-8-4-5-9-13(12)16(19)17(20)14(15)10-11-6-2-1-3-7-11/h1-9,20H,10H2","DAFZNKDZHABMQJ-UHFFFAOYSA-N","?",,"spectrophotometric","a/apparent","?","acidic",4.9
"10326","OC=1([NH+]=C(N)N(C=1)C)","CN1C=C(O)N=C1N","InChI=1S/C4H7N3O/c1-7-2-3(8)6-4(7)5/h2,8H,1H3,(H2,5,6)","BTXYOFGSUFEOLA-UHFFFAOYSA-N","?","20","mean from 6","b/apparent","?","acidic",4.9
"11422","[Br]C1(=C(O)C=CC(C=C1)=O)","OC1C=CC(=O)C=CC=1Br","InChI=1S/C7H5BrO2/c8-6-3-1-5(9)2-4-7(6)10/h1-4,10H","WPLOAOXHEXJGRP-UHFFFAOYSA-N","?","20",,"a/apparent","?","acidic",4.9
"12591","[Si](CCC(=O)O)(C)(C)C","C[Si](C)(C)CC=C(O)O","InChI=1S/C6H14O2Si/c1-9(2,3)5-4-6(7)8/h4,7-8H,5H2,1-3H3","NPHJOELCJYDOBE-UHFFFAOYSA-N","?","25","potentiometric","apparent","?","acidic",4.91
"14167","O=C(O)CCC1(CCCCC1)","OC(O)=CCC1CCCCC1","InChI=1S/C9H16O2/c10-9(11)7-6-8-4-2-1-3-5-8/h7-8,10-11H,1-6H2","PDKRILRXDDJMDE-UHFFFAOYSA-N","?","25","conductometric","a/thermodynamic","?","acidic",4.91
"16173","ClC1(=C(O)C(=C(Cl)C=C1Cl)C[NH+]2(CCOCC2))","OC1=C(CN2CCOCC2)C(Cl)=CC(Cl)=C1Cl","InChI=1S/C11H12Cl3NO2/c12-8-5-9(13)10(14)11(16)7(8)6-15-1-3-17-4-2-15/h5,16H,1-4,6H2","SXLCRVXLZXSECK-UHFFFAOYSA-N","?","25","spectrophotometric","a1/apparent","?","acidic",4.915
"13276","O=C(O)C12(C(O)C(C)(C)C(C1)CC2)","CC1(C)C2CC(CC2)(C1O)C(O)=O","InChI=1S/C10H16O3/c1-9(2)6-3-4-10(5-6,7(9)11)8(12)13/h6-7,11H,3-5H2,1-2H3,(H,12,13)","DSOMZNUWRKIACY-UHFFFAOYSA-N","?, ?","16",,"a/apparent","?, ?","acidic",4.9399999999999995
"11386","O=C(O)C1(C(CCC1C)C)","CC1CCC(C)C1=C(O)O","InChI=1S/C8H14O2/c1-5-3-4-6(2)7(5)8(9)10/h5-6,9-10H,3-4H2,1-2H3","RTPHGSNXIKYOLU-UHFFFAOYSA-N","?, ?, ?","24","potentiometric","a/thermodynamic","?, ?, ?","acidic",4.943333333333333
"10518","O=C(O)CCCC1(CCCCC1)","OC(O)=CCCC1CCCCC1","InChI=1S/C10H18O2/c11-10(12)8-4-7-9-5-2-1-3-6-9/h8-9,11-12H,1-7H2","YDMANUWXPGLDIN-UHFFFAOYSA-N","?","25","conductometric","a/thermodynamic","?","acidic",4.95
"15453","O=C(O)CCCCCCCC=CCCCCCCCC","CCCCCCCCC=CCCCCCCC=C(O)O","InChI=1S/C18H34O2/c1-2-3-4-5-6-7-8-9-10-11-12-13-14-15-16-17-18(19)20/h9-10,17,19-20H,2-8,11-16H2,1H3","VPEDGILPWLTVIT-UHFFFAOYSA-N","?","19.9",,"a1/thermodynamic","H(1+)","acidic",4.95
"14495","[Br]NS(=O)(=O)C1(=CC=CC=C1)","O=S(=O)(NBr)C1C=CC=CC=1","InChI=1S/C6H6BrNO2S/c7-8-11(9,10)6-4-2-1-3-5-6/h1-5,8H","CIZZBNHBFCGHME-UHFFFAOYSA-N","?","25",,"a1/apparent","N-H","acidic",4.95
"16063","O=C(O)CCC(=O)C2(=CC=1(C(=CC=CC=1)C=C2))","OC(O)=CCC(=O)C1=CC2C=CC=CC=2C=C1","InChI=1S/C14H12O3/c15-13(7-8-14(16)17)12-6-5-10-3-1-2-4-11(10)9-12/h1-6,8-9,16-17H,7H2","RYOMEZLGXATRCL-UHFFFAOYSA-N","?","25","potentiometric","thermodynamic","?","acidic",4.96
"14068","[Si](CCCCC(=O)O)(C)(C)C","C[Si](C)(C)CCCC=C(O)O","InChI=1S/C8H18O2Si/c1-11(2,3)7-5-4-6-8(9)10/h6,9-10H,4-5,7H2,1-3H3","VGWFEQTUPASBBO-UHFFFAOYSA-N","?","25","potentiometric","a/apparent","?","acidic",4.96
"10807","O=C(O)C1(=CC=C(N(C)C)C=C1)","CN(C)C1C=CC(=CC=1)C(O)=O","InChI=1S/C9H11NO2/c1-10(2)8-5-3-7(4-6-8)9(11)12/h3-6H,1-2H3,(H,11,12)","YDIYEOMDOWUDTJ-UHFFFAOYSA-N","?","25","mean from 2","a1/apparent","?","acidic",4.96
"11381","O=C(O)C1(CCC(C)CC1)","CC1CCC(CC1)=C(O)O","InChI=1S/C8H14O2/c1-6-2-4-7(5-3-6)8(9)10/h6,9-10H,2-5H2,1H3","OMSCEJAXFYEHEX-UHFFFAOYSA-N","?, ?","25","conductometric","a/thermodynamic","?, ?","acidic",4.965
"14804","O=C(O)CCC(C3(C2(C(O)CC4(C1(C(CC(O)CC1)CC(C4(C2CC3))O)(C)))(C)))C","CC(CC=C(O)O)C1CCC2C3C(CC(O)C21C)C1(C)CCC(O)CC1CC3O","InChI=1S/C24H40O5/c1-13(4-7-21(28)29)16-5-6-17-22-18(12-20(27)24(16,17)3)23(2)9-8-15(25)10-14(23)11-19(22)26/h7,13-20,22,25-29H,4-6,8-12H2,1-3H3","HNZMMVQDGGINHQ-UHFFFAOYSA-N","?","20","mean from 2","thermodynamic","?","acidic",4.98
"10179","S1(C(=NC=C1OC)N)","COC1=CN=C(N)S1","InChI=1S/C4H6N2OS/c1-7-3-2-6-4(5)8-3/h2H,1H3,(H2,5,6)","OZNOHWKQLWLLAG-UHFFFAOYSA-N","?","25","potentiometric","a1/thermodynamic","?","acidic",4.98
"10239","O=C(O)C1(=CNC=C1)","OC(=O)C1C=CNC=1","InChI=1S/C5H5NO2/c7-5(8)4-1-2-6-3-4/h1-3,6H,(H,7,8)","DOYOPBSXEIZLRE-UHFFFAOYSA-N","?","20","mean from 2","a1/apparent","?","acidic",4.98
"10012","O=C(O)C1(CCCC1)","OC(O)=C1CCCC1","InChI=1S/C6H10O2/c7-6(8)5-3-1-2-4-5/h7-8H,1-4H2","CDGHUKPELSPASZ-UHFFFAOYSA-N","?","25","potentiometric","a/thermodynamic","?","acidic",4.99
"15054","O=C(O)CCC1(=NN=NN1C2(=CC=CC=C2))","OC(O)=CCC1=NN=NN1C1C=CC=CC=1","InChI=1S/C10H10N4O2/c15-10(16)7-6-9-11-12-13-14(9)8-4-2-1-3-5-8/h1-5,7,15-16H,6H2","FDNHRZBDKYZNMV-UHFFFAOYSA-N","?",,,"a/apparent","?","acidic",5.0
"16225","FC(F)(F)C1(=C(NN=C(C#N)C#N)C=CC=C1)","N#CC(C#N)N=NC1C=CC=CC=1C(F)(F)F","InChI=1S/C10H5F3N4/c11-10(12,13)8-3-1-2-4-9(8)17-16-7(5-14)6-15/h1-4,7H","OTYRRSPJNJWAAC-UHFFFAOYSA-N","?","25","mean from 2","a1/apparent","?","acidic",5.0
"17265","[SeH]CC[NH3+]","NCC[SeH]","InChI=1S/C2H7NSe/c3-1-2-4/h4H,1-3H2","KBFHKFAUJGEUJT-UHFFFAOYSA-N","?","20","mean from 2","a1/apparent","?","acidic",5.0
"17398","[Br]C(C#N)C#N","N#CC(Br)C#N","InChI=1S/C3HBrN2/c4-3(1-5)2-6/h3H","SFRZRFWPESUWKP-UHFFFAOYSA-N","?","25","potentiometric","a/apparent","?","acidic",5.0
"12834","O=C1(OC(=CC(C1)=O)C)","CC1=CC(=O)C=C(O)O1","InChI=1S/C6H6O3/c1-4-2-5(7)3-6(8)9-4/h2-3,8H,1H3","OOKCZXGEYPSNIM-UHFFFAOYSA-N","?","20","potentiometric","a/apparent","?","acidic",5.0
"13482","O=C(OC)C1(=C(C(=O)OC)CC=C1)","COC(=O)C1C=CCC=1C(=O)OC","InChI=1S/C9H10O4/c1-12-8(10)6-4-3-5-7(6)9(11)13-2/h3-4H,5H2,1-2H3","UPQOUDHTAWHHPO-UHFFFAOYSA-N","?","30","spectrophotometric","a1/apparent","?","acidic",5.0
"14748","O[N+]#C","C#[N+]O","InChI=1S/CHNO/c1-2-3/h1H/p+1","UXKUODQYLDZXDL-UHFFFAOYSA-O","?","25",,"a/thermodynamic","?","acidic",5.0
"16031","O=C(O)CCCCCCCCCCCCCC","CCCCCCCCCCCCCC=C(O)O","InChI=1S/C15H30O2/c1-2-3-4-5-6-7-8-9-10-11-12-13-14-15(16)17/h14,16-17H,2-13H2,1H3","YDQGEDXFASNIIF-UHFFFAOYSA-N","?","25",,"a1/apparent","COOH","acidic",5.01
"14813","O=C(O)C5(C(C(C4(C2(C(C1(C(O)CC3(CC(O)CCC3(C1CC2)(C))))CC4)(C)))C)C5)","CC(C1CC1=C(O)O)C1CCC2C3C(CCC21C)C1(C)CCC(O)CC1CC3O","InChI=1S/C25H40O4/c1-13(16-12-17(16)23(28)29)18-4-5-19-22-20(7-9-25(18,19)3)24(2)8-6-15(26)10-14(24)11-21(22)27/h13-16,18-22,26-29H,4-12H2,1-3H3","JIWNMALPOJSCAX-UHFFFAOYSA-N","?","25","potentiometric","a1/apparent","-COOH","acidic",5.01
"17887","OC1(=C[NH+]=CC=C1)","OC1=CN=CC=C1","InChI=1S/C5H5NO/c7-5-2-1-3-6-4-5/h1-4,7H","GRFNBEZIAWKNCO-UHFFFAOYSA-N","?","24","mean from 8","a1/apparent","?","acidic",5.01
"10354","O=C(O)CC(C)(C)C","CC(C)(C)C=C(O)O","InChI=1S/C6H12O2/c1-6(2,3)4-5(7)8/h4,7-8H,1-3H3","SRJDGBOAWTZVBX-UHFFFAOYSA-N","?","24","mean from 5","a1/apparent","?","acidic",5.01
"16249","OC1(=[N+]([O-])C(=CN=C1CC(C)C)C(O)(CC)C)","CCC(C)(O)C1=CN=C(CC(C)C)C(O)=[N+]1[O-]","InChI=1S/C12H20N2O3/c1-5-12(4,16)10-7-13-9(6-8(2)3)11(15)14(10)17/h7-8,15-16H,5-6H2,1-4H3","FUSPLSCUKCMVJB-UHFFFAOYSA-N","?",,"mean from 2","a/apparent","?","acidic",5.02
"10372","O=C(O)CCCC=O","OC=CCC=C(O)O","InChI=1S/C5H8O3/c6-4-2-1-3-5(7)8/h2-4,6-8H,1H2","TUIFIAIKFSZYJT-UHFFFAOYSA-N","?","19","potentiometric","a/thermodynamic","?","acidic",5.02
"14067","[Si](CCCC(=O)O)(CC)(C)C","CC[Si](C)(C)CCC=C(O)O","InChI=1S/C8H18O2Si/c1-4-11(2,3)7-5-6-8(9)10/h6,9-10H,4-5,7H2,1-3H3","MTYKUCBRMIFSFP-UHFFFAOYSA-N","?","25","potentiometric","a1/apparent","?","acidic",5.02
"10356","O=C(O)C(CC)(C)C","CCC(C)(C)C(O)=O","InChI=1S/C6H12O2/c1-4-6(2,3)5(7)8/h4H2,1-3H3,(H,7,8)","VUAXHMVRKOTJKP-UHFFFAOYSA-N","?","18","potentiometric","apparent","?","acidic",5.03
"12157","O=[N+]([O-])C1(=C(O)C=CC(=C1)[N+](C)(C)C)","C[N+](C)(C)C1=CC(=C(O)C=C1)[N+]([O-])=O","InChI=1S/C9H12N2O3/c1-11(2,3)7-4-5-9(12)8(6-7)10(13)14/h4-6H,1-3H3/p+1","IFVNVUCRFDHCBM-UHFFFAOYSA-O","?","25","spectrophotometric","a1/apparent","?","acidic",5.03
"12283","[Si](O[Si](C)(C)C)(CCCC(=O)O)(C)C","C[Si](C)(C)O[Si](C)(C)CCC=C(O)O","InChI=1S/C9H22O3Si2/c1-13(2,3)12-14(4,5)8-6-7-9(10)11/h7,10-11H,6,8H2,1-5H3","VFJMJAQBGMDXKK-UHFFFAOYSA-N","?","25","potentiometric","a1/apparent","?","acidic",5.03
"17445","[SeH]CC[NH2+]CC","CCNCC[SeH]","InChI=1S/C4H11NSe/c1-2-5-3-4-6/h5-6H,2-4H2,1H3","BZHPNNCEEXJTOC-UHFFFAOYSA-N","?","22","potentiometric","a1/apparent","?","acidic",5.04
"17608","O=C(O)C(C)(C)C","CC(C)(C)C(O)=O","InChI=1S/C5H10O2/c1-5(2,3)4(6)7/h1-3H3,(H,6,7)","IUGYQRQAERSCNH-UHFFFAOYSA-N","?","23","mean from 5","a1/apparent","COOH","acidic",5.04
"15616","S(=O)(=O)(NC(=O)OC(C)(C)C)C1(=CC=C(C)C=C1)","CC1C=CC(=CC=1)S(=O)(=O)NC(=O)OC(C)(C)C","InChI=1S/C12H17NO4S/c1-9-5-7-10(8-6-9)18(15,16)13-11(14)17-12(2,3)4/h5-8H,1-4H3,(H,13,14)","DUTLOVSBVBGNDM-UHFFFAOYSA-N","?","25","potentiometric","a1/apparent","NH","acidic",5.05
"11945","O=C(O)C1(C2(CC(C1)CC2))","OC(O)=C1CC2CC1CC2","InChI=1S/C8H12O2/c9-8(10)7-4-5-1-2-6(7)3-5/h5-6,9-10H,1-4H2","CBTJEBLVONHPCZ-UHFFFAOYSA-N","?, ?","20","potentiometric","a/apparent","?, ?","acidic",5.05
"13187","ClCCC[Si](CC(C(=O)O)C)(C)C","CC(C[Si](C)(C)CCCCl)=C(O)O","InChI=1S/C9H19ClO2Si/c1-8(9(11)12)7-13(2,3)6-4-5-10/h11-12H,4-7H2,1-3H3","XPMWSLZIZAOAEJ-UHFFFAOYSA-N","?","25","potentiometric","a1/apparent","?","acidic",5.05
"16180","ClC1(=C(Cl)C=C(Cl)C(=C1C[NH+]2(CCCCC2))O)","OC1C(CN2CCCCC2)=C(Cl)C(Cl)=CC=1Cl","InChI=1S/C12H14Cl3NO/c13-9-6-10(14)12(17)8(11(9)15)7-16-4-2-1-3-5-16/h6,17H,1-5,7H2","LYOJCXAXCLIMPH-UHFFFAOYSA-N","?","25","spectrophotometric","a1/apparent","OH","acidic",5.06
"11275","O(C2(=CC=1(N=NN(C=1C=C2)O)))C","COC1=CC2N=NN(O)C=2C=C1","InChI=1S/C7H7N3O2/c1-12-5-2-3-7-6(4-5)8-9-10(7)11/h2-4,11H,1H3","HISVSQKXOPHVJI-UHFFFAOYSA-N","?","25","potentiometric","a1/apparent","OH","acidic",5.07
"15492","O=C(O)CCC(C4(C2(C(C1(C(O)CC3(CC(O)CCC3(C1CC2)(C))))CC4)(C)))C","CC(CC=C(O)O)C1CCC2C3C(CCC21C)C1(C)CCC(O)CC1CC3O","InChI=1S/C24H40O4/c1-14(4-7-21(27)28)17-5-6-18-22-19(9-11-24(17,18)3)23(2)10-8-16(25)12-15(23)13-20(22)26/h7,14-20,22,25-28H,4-6,8-13H2,1-3H3","YPCUSLRMJSRUGJ-UHFFFAOYSA-N","?","25","potentiometric","a1/apparent","-COOH","acidic",5.08
"13612","O=[N+]([O-])C1(=C(O)C=CC(=C1)C(=O)C)","C=C(O)C1C=CC(O)=C(C=1)[N+]([O-])=O","InChI=1S/C8H7NO4/c1-5(10)6-2-3-8(11)7(4-6)9(12)13/h2-4,10-11H,1H2","KAXMTVCNYCQOSX-UHFFFAOYSA-N","?","25","spectrophotometric","a1/apparent","?","acidic",5.09
"17749","O=[N+]([O-])CC(=O)C","C=C(O)C[N+]([O-])=O","InChI=1S/C3H5NO3/c1-3(5)2-4(6)7/h5H,1-2H2","QUDYZEFRBZLOHA-UHFFFAOYSA-N","?","25","potentiometric","a/apparent","?","acidic",5.1
"13053","O=C(O)C=1(NC=CC=1C)","CC1C=CNC=1C(O)=O","InChI=1S/C6H7NO2/c1-4-2-3-7-5(4)6(8)9/h2-3,7H,1H3,(H,8,9)","YIVHOQIKHMTVRG-UHFFFAOYSA-N","?",,"potentiometric","a/apparent","?","acidic",5.1
"10505","O=C(N)C(=NO)C#N","NC(=O)C(C#N)N=O","InChI=1S/C3H3N3O2/c4-1-2(6-8)3(5)7/h2H,(H2,5,7)","DXISQUITOXALCU-UHFFFAOYSA-N","?","25","potentiometric","a1/apparent","C=NOH","acidic",5.12
"13285","FC(F)(F)C1(=NC=2(N=CN=CC=2(N1)))","FC(F)(F)C1NC2C=NC=NC=2N=1","InChI=1S/C6H3F3N4/c7-6(8,9)5-12-3-1-10-2-11-4(3)13-5/h1-2H,(H,10,11,12,13)","YGINUNRCDDYFKD-UHFFFAOYSA-N","?",,"spectrophotometric","a2/apparent","?","acidic",5.12
"14913","ClC1(=C(Cl)C=C(Cl)C(=C1C[NH+](CC)CC)O)","CCN(CC1C(O)=C(Cl)C=C(Cl)C=1Cl)CC","InChI=1S/C11H14Cl3NO/c1-3-15(4-2)6-7-10(14)8(12)5-9(13)11(7)16/h5,16H,3-4,6H2,1-2H3","WYBXHLUNMJZPIY-UHFFFAOYSA-N","?","25","spectrophotometric","a1/apparent","OH","acidic",5.13
"15151","O=C(C1(=C[N+](O)=C([O-])C=C1))C2(=CC=CC=C2)","OC1C=CC(=C[N+]=1O)C(=O)C1C=CC=CC=1","InChI=1S/C12H9NO3/c14-11-7-6-10(8-13(11)16)12(15)9-4-2-1-3-5-9/h1-8,16H/p+1","NSPSKGHNNHUNOK-UHFFFAOYSA-O","?",,"potentiometric","a/apparent","?","acidic",5.13
"10491","O[N+](CC)(CC)CC","CC[N+](O)(CC)CC","InChI=1S/C6H16NO/c1-4-7(8,5-2)6-3/h8H,4-6H2,1-3H3/q+1","JJZBZCFUKIRTGF-UHFFFAOYSA-N","?","20","potentiometric","a/apparent","?","acidic",5.13
"11389","O=C(O)C1(CCCCC1)(C)","CC1(CCCCC1)C(O)=O","InChI=1S/C8H14O2/c1-8(7(9)10)5-3-2-4-6-8/h2-6H2,1H3,(H,9,10)","REHQLKUNRPCYEW-UHFFFAOYSA-N","?","25","conductometric","a/thermodynamic","?","acidic",5.13
"10351","O=C(O)C=C(CC)C","CC(CC)=CC(O)=O","InChI=1S/C6H10O2/c1-3-5(2)4-6(7)8/h4H,3H2,1-2H3,(H,7,8)","RSFQOQOSOMBPEJ-UHFFFAOYSA-N","?, ?","25","conductometric","thermodynamic","?, ?","acidic",5.145
"13233","S(=O)(=O)(NC(=O)N)C(C(=O)N)(C)C","CC(C)(C(N)=O)S(=O)(=O)NC(N)=O","InChI=1S/C5H11N3O4S/c1-5(2,3(6)9)13(11,12)8-4(7)10/h1-2H3,(H2,6,9)(H3,7,8,10)","HQMKKUIIVGODAB-UHFFFAOYSA-N","?","25","potentiometric","a1/apparent","?","acidic",5.15
"11367","O=C1(OC(OC(C1)=O)(C)C)","CC1(C)OC(=O)C=C(O)O1","InChI=1S/C6H8O4/c1-6(2)9-4(7)3-5(8)10-6/h3,7H,1-2H3","ANUQJJACQHAFER-UHFFFAOYSA-N","?",,"mean from 2","a1/apparent","?","acidic",5.15
"14633","ClC1(=C(Cl)C=CC=C1NN=C(C#N)C#N)","N#CC(C#N)N=NC1=CC=CC(Cl)=C1Cl","InChI=1S/C9H4Cl2N4/c10-7-2-1-3-8(9(7)11)15-14-6(4-12)5-13/h1-3,6H","LGJRUIATGITKJJ-UHFFFAOYSA-N","?","25","mean from 2","a1/apparent","?","acidic",5.15
"11811","ClC1(=NC(N=NO)=NN1C)","CN1N=C(NN=O)N=C1Cl","InChI=1S/C3H4ClN5O/c1-9-2(4)5-3(7-9)6-8-10/h1H3,(H,6,7,10)","BOSWSHKBWQASDG-UHFFFAOYSA-N","?","25","spectrophotometric","a1/apparent","O-H","acidic",5.17
"17813","S1(N=C(C)N=C1S)","CC1N=C(S)SN=1","InChI=1S/C3H4N2S2/c1-2-4-3(6)7-5-2/h1H3,(H,4,5,6)","QPHZWABVAIGWHI-UHFFFAOYSA-N","?","25","potentiometric","a/apparent","?","acidic",5.18
"17558","[SeH]C(C[NH3+])C","CC([SeH])CN","InChI=1S/C3H9NSe/c1-3(5)2-4/h3,5H,2,4H2,1H3","JUELHOGPBBVZDV-UHFFFAOYSA-N","?","22","potentiometric","a1/apparent","?","acidic",5.19
"17231","[Se](=O)(O)C","C[Se](O)=O","InChI=1S/CH4O2Se/c1-4(2)3/h1H3,(H,2,3)","UEQANLFPOFICBH-UHFFFAOYSA-N","?","25","potentiometric","apparent","?","acidic",5.19
"15801","S(=O)(=O)(NC1(=[N+]([O-])C=CC=C1))C2(=CC=C(N)C=C2)","NC1C=CC(=CC=1)S(=O)(=O)NC1C=CC=C[N+]=1[O-]","InChI=1S/C11H11N3O3S/c12-9-4-6-10(7-5-9)18(16,17)13-11-3-1-2-8-14(11)15/h1-8,13H,12H2","FINHFDCNIJXJDR-UHFFFAOYSA-N","?",,,"a/apparent","?","acidic",5.2