"Molecule name","OriginalSmiles","Canonical_QSARr","InChI_Code_QSARr","InChI Key_QSARr","Salt_Solvent (Concatenate)","temp","method","type","group","basicOrAcidic","pKa"
"13616","O=[N+]([O-])C1(=CC(=C(C(=O)O)C=C1)C)","CC1C=C(C=CC=1C(O)=O)[N+]([O-])=O","InChI=1S/C8H7NO4/c1-5-4-6(9(12)13)2-3-7(5)8(10)11/h2-4H,1H3,(H,10,11)","XXXOBNJIIZQSPT-UHFFFAOYSA-N","?","20","mean from 2","a/thermodynamic","?","acidic",2.91
"16294","O=C(O)C2(O)(C1(=C(C=CC=C1)C3(=C2C=CC=C3)))","OC(=O)C1(O)C2C=CC=CC=2C2C=CC=CC1=2","InChI=1S/C14H10O3/c15-13(16)14(17)11-7-3-1-5-9(11)10-6-2-4-8-12(10)14/h1-8,17H,(H,15,16)","GXAMYUGOODKVRM-UHFFFAOYSA-N","?","25",,"apparent","?","acidic",2.92
"11950","ClC1(C(=O)O)(C2(CCCC12))","OC(=O)C1(Cl)C2CCCC12","InChI=1S/C7H9ClO2/c8-7(6(9)10)4-2-1-3-5(4)7/h4-5H,1-3H2,(H,9,10)","YJTWNBRVDIWGIF-UHFFFAOYSA-N","?, ?","20",,"a1/apparent","?, ?","acidic",2.925
"11434","[Br]C1(=C(C(=O)O)C=CC=C1)","OC(=O)C1C=CC=CC=1Br","InChI=1S/C7H5BrO2/c8-6-4-2-1-3-5(6)7(9)10/h1-4H,(H,9,10)","XRXMNWGCKISMOH-UHFFFAOYSA-N","?","21","mean from 3","a1/apparent","H(+)","acidic",2.93
"11433","IC1(=C(C(=O)O)C=CC=C1)","OC(=O)C1C=CC=CC=1I","InChI=1S/C7H5IO2/c8-6-4-2-1-3-5(6)7(9)10/h1-4H,(H,9,10)","CJNZAXGUTKBIHP-UHFFFAOYSA-N","?","25","spectrophotometric","a/apparent","?","acidic",2.93
"14555","S1(CN(C(=O)C)C(C1)C(=O)O)","C=C(O)N1CSCC1=C(O)O","InChI=1S/C6H9NO3S/c1-4(8)7-3-11-2-5(7)6(9)10/h8-10H,1-3H2","HFUCGUGJMJTSFM-UHFFFAOYSA-N","?","20","mean from 2","a/apparent","?","acidic",2.94
"12273","O=C(O)C(NC(=O)C)CC=1([NH+]=CNC=1)","C/C(/O)=N\C(CC1=CNC=N1)=C(O)O","InChI=1S/C8H11N3O3/c1-5(12)11-7(8(13)14)2-6-3-9-4-10-6/h3-4,13-14H,2H2,1H3,(H,9,10)(H,11,12)","XDRNOONALRPQTA-UHFFFAOYSA-N","?","25","potentiometric","a1/apparent","COOH","acidic",2.94
"11795","O=C(O)C1(=C[N+]([O-])=CC=C1)","[O-][N+]1C=C(C=CC=1)C(O)=O","InChI=1S/C6H5NO3/c8-6(9)5-2-1-3-7(10)4-5/h1-4H,(H,8,9)","FJCFFCXMEXZEIM-UHFFFAOYSA-N","?","25","mean from 2","a2/thermodynamic","?","acidic",2.95
"10740","O=C(O)C1(N(C(=O)C[NH3+])CCC1)","N=CC(O)N1CCCC1=C(O)O","InChI=1S/C7H12N2O3/c8-4-6(10)9-3-1-2-5(9)7(11)12/h4,6,8,10-12H,1-3H2","RPBNEHXMGHRUCX-UHFFFAOYSA-N","?","25","potentiometric","a1/apparent","?","acidic",2.95
"11661","S=C(S)NC1(CCCCC1)","SC(=S)NC1CCCCC1","InChI=1S/C7H13NS2/c9-7(10)8-6-4-2-1-3-5-6/h6H,1-5H2,(H2,8,9,10)","AGCJLSMWWRLQTK-UHFFFAOYSA-N","?","20",,"a/apparent","?","acidic",2.95
"14076","S=C(S)NCCCCCC[NH3+]","NCCCCCCNC(S)=S","InChI=1S/C7H16N2S2/c8-5-3-1-2-4-6-9-7(10)11/h1-6,8H2,(H2,9,10,11)","MJENELJXOUHVBB-UHFFFAOYSA-N","?","25",,"a1/apparent","S-H","acidic",2.95
"14223","IC1(=C(C(=O)O)C=C(C)C=C1)","CC1=CC(C(O)=O)=C(I)C=C1","InChI=1S/C8H7IO2/c1-5-2-3-7(9)6(4-5)8(10)11/h2-4H,1H3,(H,10,11)","INGWGCDYAJKXKP-UHFFFAOYSA-N","?","20","potentiometric","a/thermodynamic","?","acidic",2.95
"16257","S(=O)(=O)(N(CC)CC)C1(=C(C(=O)O)C=CC=C1)","CCN(CC)S(=O)(=O)C1C=CC=CC=1C(O)=O","InChI=1S/C11H15NO4S/c1-3-12(4-2)17(15,16)10-8-6-5-7-9(10)11(13)14/h5-8H,3-4H2,1-2H3,(H,13,14)","NFUPCSUIJPOOMJ-UHFFFAOYSA-N","?","25",,"a1/apparent","COOH","acidic",2.96
"13089","[Br]C=1(SC(C(=O)O)=CN=1)","OC(=O)C1=CN=C(Br)S1","InChI=1S/C4H2BrNO2S/c5-4-6-1-2(9-4)3(7)8/h1H,(H,7,8)","BESGTWHUMYHYEQ-UHFFFAOYSA-N","?","25","potentiometric","a/apparent","?","acidic",2.96
"15439","O=C(O)C2(OC(OC1(=CC([NH3+])=CC=C1))C(O)C(C2O)O)","NC1=CC(=CC=C1)OC1OC(C(O)C(O)C1O)=C(O)O","InChI=1S/C12H15NO7/c13-5-2-1-3-6(4-5)19-12-9(16)7(14)8(15)10(20-12)11(17)18/h1-4,7-9,12,14-18H,13H2","NZGKLOFHPSOEFY-UHFFFAOYSA-N","?","22","potentiometric","apparent","?","acidic",2.97
"17346","[Br]C(C(=O)O)C","CC(Br)=C(O)O","InChI=1S/C3H5BrO2/c1-2(4)3(5)6/h5-6H,1H3","NZSBXBVHTAQEIH-UHFFFAOYSA-N","?","20",,"a1/apparent","?","acidic",2.97
"17624","ClC(C(=O)O)(C)C","CC(C)(Cl)C(O)=O","InChI=1S/C4H7ClO2/c1-4(2,5)3(6)7/h1-2H3,(H,6,7)","MYCXCBCDXVFXNE-UHFFFAOYSA-N","?","18","potentiometric","apparent","?","acidic",2.97
"11911","S=C(SC)N(CC(=O)O)C","CN(C=C(O)O)C(=S)SC","InChI=1S/C5H9NO2S2/c1-6(3-4(7)8)5(9)10-2/h3,7-8H,1-2H3","JOVCAFZQMGXWOY-UHFFFAOYSA-N","?","25","mean from 2","a1/apparent","?","acidic",2.98
"12549","O=[N+]([O-])C2(=C(C1(=NN=NN1))C=CC=C2)","[O-][N+](=O)C1C=CC=CC=1C1NN=NN=1","InChI=1S/C7H5N5O2/c13-12(14)6-4-2-1-3-5(6)7-8-10-11-9-7/h1-4H,(H,8,9,10,11)","HENCYJMPEDACFZ-UHFFFAOYSA-N","?","20","spectrophotometric","a1/apparent","NH","acidic",2.98
"11787","ClC1(=C[N+](C(=O)C)=CC=C1)","C=C(O)[N+]1C=C(Cl)C=CC=1","InChI=1S/C7H6ClNO/c1-6(10)9-4-2-3-7(8)5-9/h2-5H,1H2/p+1","VKJCGCFBBPKNFR-UHFFFAOYSA-O","?","25",,"a1/apparent","?","acidic",2.98
"10260","S1(C(C(=O)O)=CN=C1)","OC(=O)C1=CN=CS1","InChI=1S/C4H3NO2S/c6-4(7)3-1-5-2-8-3/h1-2H,(H,6,7)","YZVFSQQHQPPKNX-UHFFFAOYSA-N","?","24","mean from 3","a/apparent","?","acidic",2.99
"14382","O=C(O)C(O)CC=1([NH+]=CNC=1)","OC(O)=C(O)CC1=CNC=N1","InChI=1S/C6H8N2O3/c9-5(6(10)11)1-4-2-7-3-8-4/h2-3,9-11H,1H2,(H,7,8)","YCMZPNUKOOHINY-UHFFFAOYSA-N","?","30","potentiometric","a1/apparent","?","acidic",2.99
"12236","O=[N+]([O-])C1(=CC=C(C(O)C(=O)O)C=C1)","[O-][N+](=O)C1C=CC(=CC=1)C(O)=C(O)O","InChI=1S/C8H7NO5/c10-7(8(11)12)5-1-3-6(4-2-5)9(13)14/h1-4,10-12H","ILPIXLJSTVJWQL-UHFFFAOYSA-N","?","25","conductometric","apparent","?","acidic",2.99
"16323","O=C(O)C=1(C=3(C([NH+]=C2(C=1C=CC=C2))=CC=CC=3))","OC(=O)C1C2=CC=CC=C2N=C2C=CC=CC2=1","InChI=1S/C14H9NO2/c16-14(17)13-9-5-1-3-7-11(9)15-12-8-4-2-6-10(12)13/h1-8H,(H,16,17)","IYRYQBAAHMBIFT-UHFFFAOYSA-N","?","20","spectrophotometric","a1/apparent","?","acidic",3.0
"16915","O=C(O)C3(OC(OC2(=CC=1(C(=[NH+]C=CC=1)C=C2)))C(O)C(C3O)O)","OC(O)=C1OC(OC2=CC3=CC=CN=C3C=C2)C(O)C(O)C1O","InChI=1S/C15H15NO7/c17-10-11(18)13(14(20)21)23-15(12(10)19)22-8-3-4-9-7(6-8)2-1-5-16-9/h1-6,10-12,15,17-21H","BNRCLKJBNHUWMB-UHFFFAOYSA-N","?","22","potentiometric","a1/apparent","?","acidic",3.0
"16918","O=C(O)C3(OC(OC2(=CC1(=[NH+]C=CC=C1C=C2)))C(O)C(C3O)O)","OC(O)=C1OC(OC2=CC3=NC=CC=C3C=C2)C(O)C(O)C1O","InChI=1S/C15H15NO7/c17-10-11(18)13(14(20)21)23-15(12(10)19)22-8-4-3-7-2-1-5-16-9(7)6-8/h1-6,10-12,15,17-21H","PEJKFTZTOBJYSA-UHFFFAOYSA-N","?","22","potentiometric","a1/apparent","?","acidic",3.0
"16538","O=[N+]([O-])C=1(C=3(C(C(O)=C(C=1)C[NH+]2(CCOCC2))=CC=CC=3))","[O-][N+](=O)C1=CC(CN2CCOCC2)=C(O)C2=CC=CC=C21","InChI=1S/C15H16N2O4/c18-15-11(10-16-5-7-21-8-6-16)9-14(17(19)20)12-3-1-2-4-13(12)15/h1-4,9,18H,5-8,10H2","USGIQJYPTKPHGI-UHFFFAOYSA-N","?","25","spectrophotometric","a1/apparent","OH","acidic",3.0
"13087","ClC=1(SC(C(=O)O)=CN=1)","OC(=O)C1=CN=C(Cl)S1","InChI=1S/C4H2ClNO2S/c5-4-6-1-2(9-4)3(7)8/h1H,(H,7,8)","HNJOKQPEJIWTRF-UHFFFAOYSA-N","?","25","potentiometric","a/apparent","?","acidic",3.0
"12927","O=C(O)C1(=NN=CC=C1)","OC(=O)C1C=CC=NN=1","InChI=1S/C5H4N2O2/c8-5(9)4-2-1-3-6-7-4/h1-3H,(H,8,9)","RUUOPSRRIKJHNH-UHFFFAOYSA-N","?",,,"a/apparent","?","acidic",3.0
"10661","O=C1(NC(C(=O)O)C(C1)C(=O)N)","NC(=O)C1C=C(O)N=C1C(O)O","InChI=1S/C6H8N2O4/c7-5(10)2-1-3(9)8-4(2)6(11)12/h1-2,6,9,11-12H,(H2,7,10)","KKRJGTKDSMBNQO-UHFFFAOYSA-N","?","20","potentiometric","a/apparent","?","acidic",3.0
"14286","S1(C(C(=O)O)=CC=C1C(=O)C)","C=C(O)C1=CC=C(S1)C(O)=O","InChI=1S/C7H6O3S/c1-4(8)5-2-3-6(11-5)7(9)10/h2-3,8H,1H2,(H,9,10)","VNYWBJZMRQVUHL-UHFFFAOYSA-N","?","25","potentiometric","a1/apparent","?","acidic",3.0
"14225","[Br]C1(=C(C(=O)O)C=C(C)C=C1)","CC1=CC(C(O)=O)=C(Br)C=C1","InChI=1S/C8H7BrO2/c1-5-2-3-7(9)6(4-5)8(10)11/h2-4H,1H3,(H,10,11)","ZXMISUUIYPFORW-UHFFFAOYSA-N","?","20","potentiometric","a/thermodynamic","?","acidic",3.0
"16912","O=C(O)C3(OC(OC=2(C1(=[NH+]C=CC=C1C=CC=2)))C(O)C(C3O)O)","OC(O)=C1OC(OC2C=CC=C3C=CC=NC3=2)C(O)C(O)C1O","InChI=1S/C15H15NO7/c17-10-11(18)13(14(20)21)23-15(12(10)19)22-8-5-1-3-7-4-2-6-16-9(7)8/h1-6,10-12,15,17-21H","PNJFEGIXFKRPIW-UHFFFAOYSA-N","?","22","potentiometric","a1/apparent","?","acidic",3.01
"11887","O=C(OCC(=O)O)N(C)C","CN(C)C(=O)OC=C(O)O","InChI=1S/C5H9NO4/c1-6(2)5(9)10-3-4(7)8/h3,7-8H,1-2H3","YXMJQCIDZBADHE-UHFFFAOYSA-N","?","25","potentiometric","a1/apparent","?","acidic",3.01
"15375","[Br]C2(=CC=C(OC1(OC(C(=O)O)C(O)C(C1O)O))C=C2)","OC(O)=C1OC(OC2C=CC(Br)=CC=2)C(O)C(O)C1O","InChI=1S/C12H13BrO7/c13-5-1-3-6(4-2-5)19-12-9(16)7(14)8(15)10(20-12)11(17)18/h1-4,7-9,12,14-18H","VGIZIGPBZKYQOV-UHFFFAOYSA-N","?","22","potentiometric","a/apparent","?","acidic",3.02
"13095","S1(C(=NC=C1C)C(=O)O)","CC1=CN=C(S1)C(O)=O","InChI=1S/C5H5NO2S/c1-3-2-6-4(9-3)5(7)8/h2H,1H3,(H,7,8)","UYDGNRLMYZMDOG-UHFFFAOYSA-N","?","25","potentiometric","a/apparent","?","acidic",3.03
"12237","O=[N+]([O-])C1(=CC(=CC=C1)C(O)C(=O)O)","[O-][N+](=O)C1=CC(=CC=C1)C(O)=C(O)O","InChI=1S/C8H7NO5/c10-7(8(11)12)5-2-1-3-6(4-5)9(13)14/h1-4,10-12H","TZSNZTMTBBPCNC-UHFFFAOYSA-N","?","25","conductometric","thermodynamic","?","acidic",3.03
"12657","O=C(O)C(C#N)=C(C)C","CC(C)=C(C#N)C(O)=O","InChI=1S/C6H7NO2/c1-4(2)5(3-7)6(8)9/h1-2H3,(H,8,9)","IMCBZLGYAYZSAM-UHFFFAOYSA-N","?","20",,"a/apparent","?","acidic",3.04
"14866","O=[N+]([O-])C1(=CC=C(CCC([NH3+])C(=O)O)C=C1)","N=C(CCC1C=CC(=CC=1)[N+]([O-])=O)C(O)O","InChI=1S/C10H12N2O4/c11-9(10(13)14)6-3-7-1-4-8(5-2-7)12(15)16/h1-2,4-5,10-11,13-14H,3,6H2","KIDVNDXEXDSFSD-UHFFFAOYSA-N","?",,"potentiometric","a1/apparent","?","acidic",3.05
"14668","O=C([O-])C1([NH2+]C(CC(=O)O)CC1C(C)C)","CC(C)C1CC(C=C(O)O)N=C1C(O)O","InChI=1S/C10H17NO4/c1-5(2)7-3-6(4-8(12)13)11-9(7)10(14)15/h4-7,10,12-15H,3H2,1-2H3","PMYUMHLUJWQAPB-UHFFFAOYSA-N","?, ?",,,"a2/apparent","?, ?","acidic",3.05
"16062","O=C(O)C(O)(C1(=CC=CC=C1))C2(=CC=CC=C2)","OC(=O)C(O)(C1C=CC=CC=1)C1C=CC=CC=1","InChI=1S/C14H12O3/c15-13(16)14(17,11-7-3-1-4-8-11)12-9-5-2-6-10-12/h1-10,17H,(H,15,16)","UKXSKSHDVLQNKG-UHFFFAOYSA-N","?","18","mean from 2","a1/apparent","COOH","acidic",3.05
"14711","O=[N+]([O-])C1(=CC(=C(C(=O)O)C=C1)C(=O)C)","C=C(O)C1C=C(C=CC=1C(O)=O)[N+]([O-])=O","InChI=1S/C9H7NO5/c1-5(11)8-4-6(10(14)15)2-3-7(8)9(12)13/h2-4,11H,1H2,(H,12,13)","HIUKHAWNIYBZFP-UHFFFAOYSA-N","?","20","potentiometric","a/thermodynamic","?","acidic",3.06
"13656","O=C(O)C=C(C#N)C1(=CC=CC=C1)","N#CC(=CC(O)=O)C1C=CC=CC=1","InChI=1S/C10H7NO2/c11-7-9(6-10(12)13)8-4-2-1-3-5-8/h1-6H,(H,12,13)","ICKZIDPIMZGODJ-UHFFFAOYSA-N","?","25","conductometric","a/apparent","?","acidic",3.07
"17273","P1(=O)(O)(CCC1)","OP1(=O)CCC1","InChI=1S/C3H7O2P/c4-6(5)2-1-3-6/h1-3H2,(H,4,5)","GXFXXRGXUCTBEU-UHFFFAOYSA-N","?","25","potentiometric","a/apparent","?","acidic",3.07
"15905","O=C(O)C1(OC(OC(=O)C(CCCC)CC)C(O)C(C1O)O)","CCCCC(CC)=C(O)OC1OC(C(O)C(O)C1O)=C(O)O","InChI=1S/C14H24O8/c1-3-5-6-7(4-2)13(20)22-14-10(17)8(15)9(16)11(21-14)12(18)19/h8-10,14-20H,3-6H2,1-2H3","WMRJQUGRVMZXDR-UHFFFAOYSA-N","?","22","potentiometric","a/apparent","?","acidic",3.08
"17497","P(=O)(O)(C)C","CP(C)(O)=O","InChI=1S/C2H7O2P/c1-5(2,3)4/h1-2H3,(H,3,4)","GOJNABIZVJCYFL-UHFFFAOYSA-N","?","25","potentiometric","a/apparent","?","acidic",3.08
"12547","O=[N+]([O-])C2(=CC=C(C1(=NN=NN1))C=C2)","[O-][N+](=O)C1C=CC(=CC=1)C1NN=NN=1","InChI=1S/C7H5N5O2/c13-12(14)6-3-1-5(2-4-6)7-8-10-11-9-7/h1-4H,(H,8,9,10,11)","MIUOBAHGBPSRKY-UHFFFAOYSA-N","?","20","spectrophotometric","a1/apparent","NH","acidic",3.08
"13171","SC1(=[NH+]C=CC(=N1)NC)","CNC1C=CN=C(S)N=1","InChI=1S/C5H7N3S/c1-6-4-2-3-7-5(9)8-4/h2-3H,1H3,(H2,6,7,8,9)","VCBOLOBGWIGLSV-UHFFFAOYSA-N","?","20","potentiometric","a1/apparent","?","acidic",3.09
"11705","O=C(O)C1(=CC([NH3+])=CC=C1)","NC1=CC(=CC=C1)C(O)=O","InChI=1S/C7H7NO2/c8-6-3-1-2-5(4-6)7(9)10/h1-4H,8H2,(H,9,10)","XFDUHJPVQKIXHO-UHFFFAOYSA-N","?","25","mean from 8","a1/thermodynamic","COOH","acidic",3.09
"14224","[Br]C1(=C(C(=O)O)C=CC(=C1)C)","CC1C=CC(C(O)=O)=C(Br)C=1","InChI=1S/C8H7BrO2/c1-5-2-3-6(8(10)11)7(9)4-5/h2-4H,1H3,(H,10,11)","ZZYYOHPHSYCHQG-UHFFFAOYSA-N","?","20","potentiometric","a/thermodynamic","?","acidic",3.09
"13533","O=C1(C(=C(C)C(C1)=C(C(=O)O)C)C)","CC(=C1C=C(O)C(C)=C1C)C(O)=O","InChI=1S/C10H12O3/c1-5-6(2)9(11)4-8(5)7(3)10(12)13/h4,11H,1-3H3,(H,12,13)","ADEMXUADEPOVER-UHFFFAOYSA-N","?","25","potentiometric","a/apparent","?","acidic",3.1
"15440","O=C(O)C2(OC(OC1(=CC=C([NH3+])C=C1))C(O)C(C2O)O)","NC1=CC=C(C=C1)OC1OC(C(O)C(O)C1O)=C(O)O","InChI=1S/C12H15NO7/c13-5-1-3-6(4-2-5)19-12-9(16)7(14)8(15)10(20-12)11(17)18/h1-4,7-9,12,14-18H,13H2","QQTHUBSAKQNDRL-UHFFFAOYSA-N","?","22","potentiometric","apparent","?","acidic",3.1
"15253","S1(C(C(C(=O)O)N2(C1C([NH+]=C2CCCC([NH3+])C(=O)[O-])C(=O)[O-]))(C)C)","CC1(C)SC2C(N=C(CCCC(=N)C(O)O)N2C1=C(O)O)=C(O)O","InChI=1S/C14H21N3O6S/c1-14(2)9(13(22)23)17-7(5-3-4-6(15)11(18)19)16-8(12(20)21)10(17)24-14/h10-11,15,18-23H,3-5H2,1-2H3","WTOBBAMLNCZDKT-UHFFFAOYSA-N","?","20","potentiometric","a1/apparent","?","acidic",3.1
"16380","O=C(O)C3(OC(OC2(=CC=C(C1(=CC=CC=C1))C=C2))C(O)C(C3O)O)","OC(O)=C1OC(OC2C=CC(=CC=2)C2C=CC=CC=2)C(O)C(O)C1O","InChI=1S/C18H18O7/c19-13-14(20)16(17(22)23)25-18(15(13)21)24-12-8-6-11(7-9-12)10-4-2-1-3-5-10/h1-9,13-15,18-23H","DRBBSLZRFUHUBQ-UHFFFAOYSA-N","?","22","potentiometric","a/apparent","?","acidic",3.1
"17690","S=C(S)NC(C)C","CC(C)NC(S)=S","InChI=1S/C4H9NS2/c1-3(2)5-4(6)7/h3H,1-2H3,(H2,5,6,7)","UCPWEJNQKVUTLV-UHFFFAOYSA-N","?","25",,"apparent","?","acidic",3.1
"11818","SC1(=[NH+]C=CC(=N1)NCC)","CCNC1C=CN=C(S)N=1","InChI=1S/C6H9N3S/c1-2-7-5-3-4-8-6(10)9-5/h3-4H,2H2,1H3,(H2,7,8,9,10)","USRSRJYWYYKJAY-UHFFFAOYSA-N","?","20","potentiometric","a1/apparent","?","acidic",3.1
"14716","S(=O)(=O)(NC(=O)C)C1(=C(SC=C1)C(=O)O)","C/C(/O)=N\S(=O)(=O)C1C=CSC=1C(O)=O","InChI=1S/C7H7NO5S2/c1-4(9)8-15(12,13)5-2-3-14-6(5)7(10)11/h2-3H,1H3,(H,8,9)(H,10,11)","GFFIQSLUFOKRFK-UHFFFAOYSA-N","?","25",,"a1/apparent","COOH","acidic",3.1
"14189","[Br]C1(C(=O)CC(C)(C)CC1=O)","CC1(C)C=C(O)C(Br)C(O)=C1","InChI=1S/C8H11BrO2/c1-8(2)3-5(10)7(9)6(11)4-8/h3-4,7,10-11H,1-2H3","YRBSVURGLQGTOV-UHFFFAOYSA-N","?","20","spectrophotometric","a/apparent","?","acidic",3.1
"10953","S2(C1(=C(C=CC=C1)C=C2C(=O)O))","OC(=O)C1=CC2C=CC=CC=2S1","InChI=1S/C9H6O2S/c10-9(11)8-5-6-3-1-2-4-7(6)12-8/h1-5H,(H,10,11)","DYSJMQABFPKAQM-UHFFFAOYSA-N","?","20","spectrophotometric","a1/apparent","?","acidic",3.1
"14919","S(=O)(=O)(NC(=O)C)C1(=C(C(=O)O)C=CC=C1)","C/C(/O)=N\S(=O)(=O)C1=CC=CC=C1C(O)=O","InChI=1S/C9H9NO5S/c1-6(11)10-16(14,15)8-5-3-2-4-7(8)9(12)13/h2-5H,1H3,(H,10,11)(H,12,13)","ADVANFQVCYCSNR-UHFFFAOYSA-N","?","25",,"a1/apparent","COOH","acidic",3.1
"14936","O=[N+]([O-])C1(=CC=C(C(=O)N[N+](C)(C)C)C=C1)","C[N+](C)(C)NC(=O)C1=CC=C(C=C1)[N+]([O-])=O","InChI=1S/C10H13N3O3/c1-13(2,3)11-10(14)8-4-6-9(7-5-8)12(15)16/h4-7H,1-3H3/p+1","CLRPIVYDYCSVLW-UHFFFAOYSA-O","?","20","mean from 2","a1/apparent","?","acidic",3.11
"12330","O=C(O)C=1(C=2(C(C=CC=1C)=CC=CC=2))","CC1C=CC2=CC=CC=C2C=1C(O)=O","InChI=1S/C12H10O2/c1-8-6-7-9-4-2-3-5-10(9)11(8)12(13)14/h2-7H,1H3,(H,13,14)","ZSPDYGICHBLYSD-UHFFFAOYSA-N","?","25","spectrophotometric","a/thermodynamic","?","acidic",3.11
"13599","O=[N+]([O-])N(C1(=NC([N+](=O)[O-])=NN1))C","CN(C1NN=C(N=1)[N+]([O-])=O)[N+]([O-])=O","InChI=1S/C3H4N6O4/c1-7(9(12)13)2-4-3(6-5-2)8(10)11/h1H3,(H,4,5,6)","ZLKFFRCDJGORGS-UHFFFAOYSA-N","?","20","spectrophotometric","a1/apparent","N-H","acidic",3.12
"12852","S1(=O)(CC(=O)CC(C1)=O)","OC1CS(=O)CC(=O)C=1","InChI=1S/C5H6O3S/c6-4-1-5(7)3-9(8)2-4/h1,6H,2-3H2","KYVAKNFNKQTLNP-UHFFFAOYSA-N","?",,"potentiometric","a/apparent","?","acidic",3.12
"14221","ClC1(=C(C(=O)O)C=C(C)C=C1)","CC1=CC(C(O)=O)=C(Cl)C=C1","InChI=1S/C8H7ClO2/c1-5-2-3-7(9)6(4-5)8(10)11/h2-4H,1H3,(H,10,11)","LEBWXJZAWTVKFL-UHFFFAOYSA-N","?","20","potentiometric","a/thermodynamic","?","acidic",3.12
"12242","O=[N+]([O-])C1(=CC(=C(CO)C=C1)C(=O)O)","[O-][N+](=O)C1C=CC(CO)=C(C=1)C(O)=O","InChI=1S/C8H7NO5/c10-4-5-1-2-6(9(13)14)3-7(5)8(11)12/h1-3,10H,4H2,(H,11,12)","UGIMFDCHWGBCEV-UHFFFAOYSA-N","?","20","potentiometric","a/apparent","?","acidic",3.14
"16232","S(=O)(=O)(NC1(=CC=C(CC([NH3+])C(=O)O)C=C1))C","CS(=O)(=O)NC1C=CC(CC(=N)C(O)O)=CC=1","InChI=1S/C10H14N2O4S/c1-17(15,16)12-8-4-2-7(3-5-8)6-9(11)10(13)14/h2-5,10-14H,6H2,1H3","ANDICJROMADHJF-UHFFFAOYSA-N","?","26",,"a1/apparent","?","acidic",3.15
"15568","OC1(=[NH+]C(=NC2(=C1N=CN2C3(C=CC(C3)CO)))N)","NC1N=C(O)C2N=CN(C3CC(CO)C=C3)C=2N=1","InChI=1S/C11H13N5O2/c12-11-14-9-8(10(18)15-11)13-5-16(9)7-2-1-6(3-7)4-17/h1-2,5-7,17H,3-4H2,(H3,12,14,15,18)","XSSYCIGJYCVRRK-UHFFFAOYSA-N","?","25","spectrophotometric","a1/apparent","NH","acidic",3.15
"12238","O=[N+]([O-])C1(=C(C=CC=C1)C(O)C(=O)O)","[O-][N+](=O)C1C=CC=CC=1C(O)=C(O)O","InChI=1S/C8H7NO5/c10-7(8(11)12)5-3-1-2-4-6(5)9(13)14/h1-4,10-12H","FXPSBXZPJASRET-UHFFFAOYSA-N","?","25","conductometric","apparent","?","acidic",3.15
"14244","O=C(O)COC1(=CC=CC=C1)","OC(O)=COC1C=CC=CC=1","InChI=1S/C8H8O3/c9-8(10)6-11-7-4-2-1-3-5-7/h1-6,9-10H","OBYCMCNMAWPXFG-UHFFFAOYSA-N","?","21","mean from 8","a1/apparent","?","acidic",3.15
"10588","O=C(O)COC1(=CC=C(C)C=C1)","CC1C=CC(=CC=1)OC=C(O)O","InChI=1S/C9H10O3/c1-7-2-4-8(5-3-7)12-6-9(10)11/h2-6,10-11H,1H3","YFIWWAZCIATQOM-UHFFFAOYSA-N","?","25",,"apparent","?","acidic",3.15
"17044","O=C(O)C2(N(C(=O)C1([NH2+]CCC1))CCC2)","OC(O)=C1CCCN1C(O)C1CCCN=1","InChI=1S/C10H16N2O3/c13-9(7-3-1-5-11-7)12-6-2-4-8(12)10(14)15/h9,13-15H,1-6H2","RYLWFIZDGLVLQF-UHFFFAOYSA-N","?","25","potentiometric","a1/apparent","?","acidic",3.16
"17501","ICC(=O)O","OC(O)=CI","InChI=1S/C2H3IO2/c3-1-2(4)5/h1,4-5H","HSEHSKDYRQACTC-UHFFFAOYSA-N","?","16","mean from 3","apparent","?","acidic",3.16
"12691","O=C(O)CN(C(=O)C)C","CN(C=C(O)O)C(=C)O","InChI=1S/C5H9NO3/c1-4(7)6(2)3-5(8)9/h3,7-9H,1H2,2H3","OWDWVPVJVHVJIW-UHFFFAOYSA-N","?","40","mean from 2","a1/apparent","COOH","acidic",3.16
"13615","O=[N+]([O-])C1(=CC(=C(C)C=C1)C(=O)O)","CC1C=CC(=CC=1C(O)=O)[N+]([O-])=O","InChI=1S/C8H7NO4/c1-5-2-3-6(9(12)13)4-7(5)8(10)11/h2-4H,1H3,(H,10,11)","DJRFJAVPROZZFL-UHFFFAOYSA-N","?","20","mean from 2","a/thermodynamic","?","acidic",3.17
"10589","O=C(O)COC1(=C(C=CC=C1)C)","CC1C=CC=CC=1OC=C(O)O","InChI=1S/C9H10O3/c1-7-4-2-3-5-8(7)12-6-9(10)11/h2-6,10-11H,1H3","YQJYVZCUAQQZLM-UHFFFAOYSA-N","?","25",,"apparent","?","acidic",3.17
"14667","O=C([O-])C1([NH2+]CC(C1CC(=O)O)C(C)C)","CC(C)C1CN=C(C1C=C(O)O)C(O)O","InChI=1S/C10H17NO4/c1-5(2)7-4-11-9(10(14)15)6(7)3-8(12)13/h3,5-7,10,12-15H,4H2,1-2H3","BQBLNUADMYTMEZ-UHFFFAOYSA-N","?, ?",,,"a2/apparent","?, ?","acidic",3.1750000000000003
"12180","S(C1(=C([N+](=O)[O-])C=CC=C1))CC(=O)O","[O-][N+](=O)C1C=CC=CC=1SC=C(O)O","InChI=1S/C8H7NO4S/c10-8(11)5-14-7-4-2-1-3-6(7)9(12)13/h1-5,10-11H","FZBRCKJJKAAHKP-UHFFFAOYSA-N","?","22","mean from 2","a1/apparent","COOH","acidic",3.18
"10587","O=C(O)COC1(=CC(=CC=C1)C)","CC1C=C(C=CC=1)OC=C(O)O","InChI=1S/C9H10O3/c1-7-3-2-4-8(5-7)12-6-9(10)11/h2-6,10-11H,1H3","BSWGABJCOKELIU-UHFFFAOYSA-N","?","25",,"apparent","?","acidic",3.18
"13268","O=C1(C(O)=CC(=O)C2(=C1C=CC=C2))","OC1=CC(=O)C2C=CC=CC=2C1=O","InChI=1S/C10H6O3/c11-8-5-9(12)10(13)7-4-2-1-3-6(7)8/h1-5,12H","CSFWPUWCSPOLJW-UHFFFAOYSA-N","?","25","mean from 2","a/apparent","?","acidic",3.19
"15758","O=C1(OC2(C(C)C)(CN(C(=O)C)C(C2(C1))C(=O)O))","CC(C)C12CN(C(=C)O)C(C1C=C(O)O2)=C(O)O","InChI=1S/C12H17NO5/c1-6(2)12-5-13(7(3)14)10(11(16)17)8(12)4-9(15)18-12/h4,6,8,14-17H,3,5H2,1-2H3","UPZUCCJQWYKAPA-UHFFFAOYSA-N","?",,,"a1/apparent","?","acidic",3.2
"12365","O=C(O)C2(C1(=NN=NN1CCC(C2)C))","CC1CC(C2=NN=NN2CC1)=C(O)O","InChI=1S/C8H12N4O2/c1-5-2-3-12-7(9-10-11-12)6(4-5)8(13)14/h5,13-14H,2-4H2,1H3","BXPFEBQDNFOKDB-UHFFFAOYSA-N","?",,,"a/apparent","?","acidic",3.2
"10911","SC1(=[NH+]C=CC(=N1)NCCCC)","CCCCNC1C=CN=C(S)N=1","InChI=1S/C8H13N3S/c1-2-3-5-9-7-4-6-10-8(12)11-7/h4,6H,2-3,5H2,1H3,(H2,9,10,11,12)","ULHKLBLPKSMLQU-UHFFFAOYSA-N","?","20","potentiometric","a1/apparent","?","acidic",3.2
"14222","IC1(=C(C(=O)O)C=CC(=C1)C)","CC1C=CC(C(O)=O)=C(I)C=1","InChI=1S/C8H7IO2/c1-5-2-3-6(8(10)11)7(9)4-5/h2-4H,1H3,(H,10,11)","WNVUYAMRIXEZAT-UHFFFAOYSA-N","?","20","potentiometric","a/thermodynamic","?","acidic",3.2
"12182","S(C1(=CC=C([N+](=O)[O-])C=C1))CC(=O)O","[O-][N+](=O)C1=CC=C(C=C1)SC=C(O)O","InChI=1S/C8H7NO4S/c10-8(11)5-14-7-3-1-6(2-4-7)9(12)13/h1-5,10-11H","LKBXYYUIGPIJFI-UHFFFAOYSA-N","?","23","mean from 3","a1/apparent","COOH","acidic",3.2
"13356","O1(N=C(C)C(=C1O)C=2(ON=C(C=2)C))","CC1=NOC(O)=C1C1=CC(C)=NO1","InChI=1S/C8H8N2O3/c1-4-3-6(12-9-4)7-5(2)10-13-8(7)11/h3,11H,1-2H3","SAIARCBBXDSCKK-UHFFFAOYSA-N","?","16","potentiometric","a/apparent","?","acidic",3.2