"Molecule name","OriginalSmiles","Canonical_QSARr","InChI_Code_QSARr","InChI Key_QSARr","Salt_Solvent (Concatenate)","temp","method","type","group","basicOrAcidic","pKa"
"10857","O[N+](C1(=CC=CC=C1))(CC)CC","CC[N+](O)(CC)C1C=CC=CC=1","InChI=1S/C10H16NO/c1-3-11(12,4-2)10-8-6-5-7-9-10/h5-9,12H,3-4H2,1-2H3/q+1","RITSDWMJYYLJFU-UHFFFAOYSA-N","?","20","potentiometric","a/thermodynamic","?","acidic",4.53
"13259","ClC2(=CC=C(C1(C(C(=O)O)C1))C=C2)","OC(O)=C1CC1C1C=CC(Cl)=CC=1","InChI=1S/C10H9ClO2/c11-7-3-1-6(2-4-7)8-5-9(8)10(12)13/h1-4,8,12-13H,5H2","APDXHWLOFHSBRI-UHFFFAOYSA-N","?","25","potentiometric","a/apparent","?","acidic",4.53
"13152","O=C(NC1(=NN=NN1))C","C/C(/O)=N\C1NN=NN=1","InChI=1S/C3H5N5O/c1-2(9)4-3-5-7-8-6-3/h1H3,(H2,4,5,6,7,8,9)","JDVYHWSDERZPMV-UHFFFAOYSA-N","?",,"potentiometric","a/apparent","?","acidic",4.53
"17625","PCCCC(=O)O","OC(O)=CCCP","InChI=1S/C4H9O2P/c5-4(6)2-1-3-7/h2,5-6H,1,3,7H2","OMMOPDGQWOVEKW-UHFFFAOYSA-N","?","25","potentiometric","a1/apparent","?","acidic",4.53
"11344","O=C(O)CCCCCCCC[NH3+]","NCCCCCCCC=C(O)O","InChI=1S/C9H19NO2/c10-8-6-4-2-1-3-5-7-9(11)12/h7,11-12H,1-6,8,10H2","WMCZBNVDQGHNKB-UHFFFAOYSA-N","?","27","mean from 3","a1/apparent","?","acidic",4.53
"17829","O=C1(NOCC1[NH3+])","N=C1CONC1O","InChI=1S/C3H6N2O2/c4-2-1-7-5-3(2)6/h3-6H,1H2","IBUUJOOHXCRINS-UHFFFAOYSA-N","?","25",,"a1/apparent","?","acidic",4.54
"10662","O=C(O)C=1([NH+]=C(C)NC=1C(=O)[O-])","CC1NC(=C(N=1)C(O)=O)C(O)=O","InChI=1S/C6H6N2O4/c1-2-7-3(5(9)10)4(8-2)6(11)12/h1H3,(H,7,8)(H,9,10)(H,11,12)","DCYCQZSHGUXYGP-UHFFFAOYSA-N","?","18","conductometric","a1/apparent","?","acidic",4.54
"11477","O=C(O)C1(=C(CCC1)CO)","OC(=O)C1CCCC=1CO","InChI=1S/C7H10O3/c8-4-5-2-1-3-6(5)7(9)10/h8H,1-4H2,(H,9,10)","JUELEAHMILIFAH-UHFFFAOYSA-N","?","25",,"a1/apparent","CO2H","acidic",4.54
"10601","O=C(O)C1(=C(C=C(OC)C=C1)C)","CC1C=C(C=CC=1C(O)=O)OC","InChI=1S/C9H10O3/c1-6-5-7(12-2)3-4-8(6)9(10)11/h3-5H,1-2H3,(H,10,11)","MSVRGYOYISBGTH-UHFFFAOYSA-N","?","20","potentiometric","a/thermodynamic","?","acidic",4.54
"12174","O=[N+]([O-])C1(=CC=C(CCC(=O)O)C=C1)","[O-][N+](=O)C1=CC=C(CC=C(O)O)C=C1","InChI=1S/C9H9NO4/c11-9(12)6-3-7-1-4-8(5-2-7)10(13)14/h1-2,4-6,11-12H,3H2","HMYPXGJSZZXDMP-UHFFFAOYSA-N","?","25","spectrophotometric","a1/thermodynamic","?","acidic",4.54
"11229","N1(=NNC(=N1)C2(=CC=C(N)C=C2))","NC1C=CC(=CC=1)C1NN=NN=1","InChI=1S/C7H7N5/c8-6-3-1-5(2-4-6)7-9-11-12-10-7/h1-4H,8H2,(H,9,10,11,12)","KTPONJJKCBOJCQ-UHFFFAOYSA-N","?","20","spectrophotometric","a1/apparent","NH","acidic",4.55
"11840","O=C(O)C(C(=C=C)C)(C)C","CC(=C=C)C(C)(C)C(O)=O","InChI=1S/C8H12O2/c1-5-6(2)8(3,4)7(9)10/h1H2,2-4H3,(H,9,10)","GNDIORKGYLJZFP-UHFFFAOYSA-N","?","25","potentiometric","a1/apparent","?","acidic",4.55
"10521","O=C(O)C=CC1(=CC=C(C)C=C1)","CC1=CC=C(C=CC(O)=O)C=C1","InChI=1S/C10H10O2/c1-8-2-4-9(5-3-8)6-7-10(11)12/h2-7H,1H3,(H,11,12)","RURHILYUWQEGOS-UHFFFAOYSA-N","?","25",,"apparent","?","acidic",4.56
"14253","O=C(O)C1(=C(C=CC=C1)C=O)","OC(=O)C1C=CC=CC=1C=O","InChI=1S/C8H6O3/c9-5-6-3-1-2-4-7(6)8(10)11/h1-5H,(H,10,11)","DYNFCHNNOHNJFG-UHFFFAOYSA-N","?","20","potentiometric","a/thermodynamic","?","acidic",4.56
"13218","O=C(O)CCCCCCCCC[NH3+]","NCCCCCCCCC=C(O)O","InChI=1S/C10H21NO2/c11-9-7-5-3-1-2-4-6-8-10(12)13/h8,12-13H,1-7,9,11H2","YRNWOAMGHKJYLN-UHFFFAOYSA-N","?","27","mean from 3","a1/apparent","?","acidic",4.57
"14616","O=C(O)C(C1(=CC=C(CC(C)C)C=C1))C","CC(C1=CC=C(CC(C)C)C=C1)=C(O)O","InChI=1S/C13H18O2/c1-9(2)8-11-4-6-12(7-5-11)10(3)13(14)15/h4-7,9,14-15H,8H2,1-3H3","TVVDIRKASMYMMH-UHFFFAOYSA-N","?","25",,"a1/apparent","COOH","acidic",4.57
"17487","O=CCC=O","OC=CC=O","InChI=1S/C3H4O2/c4-2-1-3-5/h1-4H","GMSHJLUJOABYOM-UHFFFAOYSA-N","?","25","spectrophotometric","a1/apparent","?","acidic",4.57
"17002","O=C(O)C=1(C(=NN(C=1)C2(=CC=CC=C2))C)","CC1=NN(C=C1C(O)=O)C1C=CC=CC=1","InChI=1S/C11H10N2O2/c1-8-10(11(14)15)7-13(12-8)9-5-3-2-4-6-9/h2-7H,1H3,(H,14,15)","XSSINBQIDAICII-UHFFFAOYSA-N","?",,"potentiometric","a/apparent","?","acidic",4.58
"12571","O=C(O)CCCCC#C","C#CCCCC=C(O)O","InChI=1S/C7H10O2/c1-2-3-4-5-6-7(8)9/h1,6,8-9H,3-5H2","NBTQZHMREFEKKJ-UHFFFAOYSA-N","?","25","potentiometric","a/apparent","?","acidic",4.58
"11943","O=C(O)C1(C2(C=CC1CC2))","OC(O)=C1C2CCC1C=C2","InChI=1S/C8H10O2/c9-8(10)7-5-1-2-6(7)4-3-5/h1-2,5-6,9-10H,3-4H2","UYBPXNWCTSSKJM-UHFFFAOYSA-N","?","25","mean from 2","a1/apparent","?","acidic",4.58
"13274","O=C(O)C1(=C(C2(C=CC1C2))COC)","COCC1C2CC(C=C2)C=1C(O)=O","InChI=1S/C10H12O3/c1-13-5-8-6-2-3-7(4-6)9(8)10(11)12/h2-3,6-7H,4-5H2,1H3,(H,11,12)","KTJBMCLOXXHHMD-UHFFFAOYSA-N","?","25",,"a1/apparent","CO2H","acidic",4.59
"10526","O=C(O)C(C1(CC(CCC1)C))C","CC(C1CC(C)CCC1)=C(O)O","InChI=1S/C10H18O2/c1-7-4-3-5-9(6-7)8(2)10(11)12/h7,9,11-12H,3-6H2,1-2H3","LBFORFZKBJVMCV-UHFFFAOYSA-N","?","25",,"a/apparent","?","acidic",4.59
"11806","N1(=NNC(=N1)CC[NH+](C)C)","CN(C)CCC1NN=NN=1","InChI=1S/C5H11N5/c1-10(2)4-3-5-6-8-9-7-5/h3-4H2,1-2H3,(H,6,7,8,9)","YNEMZPANWCXQLJ-UHFFFAOYSA-N","?","25","potentiometric","b1/apparent","tetrazole","acidic",4.59
"14166","O=C(O)CCC1(=CC=CC=C1)","OC(O)=CCC1C=CC=CC=1","InChI=1S/C9H10O2/c10-9(11)7-6-8-4-2-1-3-5-8/h1-5,7,10-11H,6H2","SXUSCSISPHMAHW-UHFFFAOYSA-N","?","25","mean from 5","a1/apparent","?","acidic",4.59
"12326","O=C(O)C=CC2(=CC=1(OCOC=1C=C2))","OC(=O)C=CC1=CC2OCOC=2C=C1","InChI=1S/C10H8O4/c11-10(12)4-2-7-1-3-8-9(5-7)14-6-13-8/h1-5H,6H2,(H,11,12)","QFQYZMGOKIROEC-UHFFFAOYSA-N","?","25",,"apparent","?","acidic",4.6
"13252","O=C(O)C2(C(C1(=CC=C(C)C=C1))C2)","CC1=CC=C(C=C1)C1CC1=C(O)O","InChI=1S/C11H12O2/c1-7-2-4-8(5-3-7)9-6-10(9)11(12)13/h2-5,9,12-13H,6H2,1H3","GRXKEFAFUSMWHY-UHFFFAOYSA-N","?","25","potentiometric","a/apparent","?","acidic",4.6
"16261","O=C(O)CCCCCCCC1(=[NH+]C(=CC=C1)C)","CC1=CC=CC(CCCCCCC=C(O)O)=N1","InChI=1S/C14H21NO2/c1-12-8-7-10-13(15-12)9-5-3-2-4-6-11-14(16)17/h7-8,10-11,16-17H,2-6,9H2,1H3","PXAYUJFOIUUUHA-UHFFFAOYSA-N","?",,"potentiometric","a1/apparent","?","acidic",4.6
"15625","O=C(O)CCCCCCCC1([NH2+]C(C(O)CC1)C)","CC1NC(CCC1O)CCCCCCC=C(O)O","InChI=1S/C14H27NO3/c1-11-13(16)10-9-12(15-11)7-5-3-2-4-6-8-14(17)18/h8,11-13,15-18H,2-7,9-10H2,1H3","UADNCFFOMXVUEC-UHFFFAOYSA-N","?",,"potentiometric","a1/apparent","NH2+","acidic",4.6
"12077","S=C1(NC=NC2(=C1NN=N2))","S=C1NC=NC2N=NNC=21","InChI=1S/C4H3N5S/c10-4-2-3(5-1-6-4)8-9-7-2/h1H,(H2,5,6,7,8,9,10)","RGKLWAHLGYLIKT-UHFFFAOYSA-N","?",,,"a/apparent","?","acidic",4.6
"12093","ON1(N=NC2(=C1C=CC=C2))","ON1N=NC2C=CC=CC1=2","InChI=1S/C6H5N3O/c10-9-6-4-2-1-3-5(6)7-8-9/h1-4,10H","ASOKPJOREAFHNY-UHFFFAOYSA-N","?","25","potentiometric","a1/apparent","OH","acidic",4.6
"13054","O=C(O)C=1(NC=C(C=1)C)","CC1C=C(NC=1)C(O)=O","InChI=1S/C6H7NO2/c1-4-2-5(6(8)9)7-3-4/h2-3,7H,1H3,(H,8,9)","YXYAHRAFINYJPL-UHFFFAOYSA-N","?",,"potentiometric","a/apparent","?","acidic",4.6
"10344","O=C(O)CCCC#C","C#CCCC=C(O)O","InChI=1S/C6H8O2/c1-2-3-4-5-6(7)8/h1,5,7-8H,3-4H2","FEMYFSZSUXDPQN-UHFFFAOYSA-N","?","25","potentiometric","a/apparent","?","acidic",4.6
"13184","[Br]CCCC(=O)OCCCC(=O)O","OC(O)=CCCOC(O)=CCCBr","InChI=1S/C8H13BrO4/c9-5-1-4-8(12)13-6-2-3-7(10)11/h3-4,10-12H,1-2,5-6H2","KGZBMOSAROXLTF-UHFFFAOYSA-N","?","20","potentiometric","a1/apparent","?","acidic",4.6
"16218","O=C(O)C=CC1(=C(OCCC(C)C)C=CC=C1)","CC(C)CCOC1C=CC=CC=1C=CC(O)=O","InChI=1S/C14H18O3/c1-11(2)9-10-17-13-6-4-3-5-12(13)7-8-14(15)16/h3-8,11H,9-10H2,1-2H3,(H,15,16)","KQPHUKDJYCECGU-UHFFFAOYSA-N","?, ?","25",,"apparent","?, ?","acidic",4.615
"10053","O=C(O)C1(C(OC)C1)","COC1CC1=C(O)O","InChI=1S/C5H8O3/c1-8-4-2-3(4)5(6)7/h4,6-7H,2H2,1H3","ZQXRVUKRFDXWCX-UHFFFAOYSA-N","?, ?","25","potentiometric","a1/apparent","?, ?","acidic",4.615
"12306","O=C(O)CCCCCCCCCC[NH3+]","NCCCCCCCCCC=C(O)O","InChI=1S/C11H23NO2/c12-10-8-6-4-2-1-3-5-7-9-11(13)14/h9,13-14H,1-8,10,12H2","SJHPVRBFTAZXMY-UHFFFAOYSA-N","?","27","mean from 3","a1/apparent","?","acidic",4.62
"13525","O=C(O)C1(=CC=C(OCCC)C=C1)","CCCOC1C=CC(=CC=1)C(O)=O","InChI=1S/C10H12O3/c1-2-7-13-9-5-3-8(4-6-9)10(11)12/h3-6H,2,7H2,1H3,(H,11,12)","GDFUWFOCYZZGQU-UHFFFAOYSA-N","?","20","mean from 2","a1/apparent","?","acidic",4.63
"10370","O=C(O)CCC(=O)C","C=C(O)CC=C(O)O","InChI=1S/C5H8O3/c1-4(6)2-3-5(7)8/h3,6-8H,1-2H2","JGKUJYLTOYLMAQ-UHFFFAOYSA-N","?","18","mean from 2","a/thermodynamic","?","acidic",4.63
"14718","O=C(N)C(C1(=CC=CC=C1))CCC(=O)O","N=C(O)C(CC=C(O)O)C1C=CC=CC=1","InChI=1S/C11H13NO3/c12-11(15)9(6-7-10(13)14)8-4-2-1-3-5-8/h1-5,7,9,13-14H,6H2,(H2,12,15)","KLCXABUHQCKBFU-UHFFFAOYSA-N","?","25","conductometric","1/thermodynamic","?","acidic",4.64
"14689","O=C(O)CCCC(C#N)C1(=CC=CC=C1)","N#CC(CCC=C(O)O)C1C=CC=CC=1","InChI=1S/C12H13NO2/c13-9-11(7-4-8-12(14)15)10-5-2-1-3-6-10/h1-3,5-6,8,11,14-15H,4,7H2","WXXFFLMSQQOUFJ-UHFFFAOYSA-N","?","25","conductometric","a/apparent","?","acidic",4.64
"11739","SC1(=CC=C([N+](=O)[O-])C=C1)","[O-][N+](=O)C1C=CC(S)=CC=1","InChI=1S/C6H5NO2S/c8-7(9)5-1-3-6(10)4-2-5/h1-4,10H","AXBVSRMHOPMXBA-UHFFFAOYSA-N","?","25","mean from 2","a1/apparent","SH","acidic",4.64
"10608","O=C(O)C1(=CC=C(OCC)C=C1)","CCOC1C=CC(=CC=1)C(O)=O","InChI=1S/C9H10O3/c1-2-12-8-5-3-7(4-6-8)9(10)11/h3-6H,2H2,1H3,(H,10,11)","SHSGDXCJYVZFTP-UHFFFAOYSA-N","?","20","mean from 2","a1/apparent","?","acidic",4.64
"12841","O=C(O)C1(C(OCC)C1)","CCOC1CC1=C(O)O","InChI=1S/C6H10O3/c1-2-9-5-3-4(5)6(7)8/h5,7-8H,2-3H2,1H3","AWNQWGHIXBVDHC-UHFFFAOYSA-N","?, ?","25","potentiometric","a1/apparent","?, ?","acidic",4.645
"13517","O=C(O)CCC1(=CC(OC)=CC=C1)","COC1C=C(CC=C(O)O)C=CC=1","InChI=1S/C10H12O3/c1-13-9-4-2-3-8(7-9)5-6-10(11)12/h2-4,6-7,11-12H,5H2,1H3","GNQPSBXBMWHHOA-UHFFFAOYSA-N","?","25","conductometric","thermodynamic","?","acidic",4.65
"17572","O[N+](C)(C)C","C[N+](C)(C)O","InChI=1S/C3H10NO/c1-4(2,3)5/h5H,1-3H3/q+1","LGHYUXIXXNHKSE-UHFFFAOYSA-N","?","20","potentiometric","a/apparent","?","acidic",4.65
"10542","ClC1(=CC=C(CCC(=O)O)C=C1)","OC(O)=CCC1C=CC(Cl)=CC=1","InChI=1S/C9H9ClO2/c10-8-4-1-7(2-5-8)3-6-9(11)12/h1-2,4-6,11-12H,3H2","KFTIEFUJVDYJAC-UHFFFAOYSA-N","?","25","potentiometric","a/apparent","?","acidic",4.65
"16776","FC(F)(F)C(=O)CC(=O)C1(=NC(C)(C)N(C1(C)C)O)","CC1(C)N=C(C(=O)C=C(O)C(F)(F)F)C(C)(C)N1O","InChI=1S/C11H15F3N2O3/c1-9(2)8(15-10(3,4)16(9)19)6(17)5-7(18)11(12,13)14/h5,18-19H,1-4H3","JZRNESJDISLUCJ-UHFFFAOYSA-N","?","20","spectrophotometric","a1/apparent","?","acidic",4.66
"17331","O=C(O)C(=C)C","CC(=C)C(O)=O","InChI=1S/C4H6O2/c1-3(2)4(5)6/h1H2,2H3,(H,5,6)","CERQOIWHTDAKMF-UHFFFAOYSA-N","?","18","potentiometric","apparent","?","acidic",4.66
"12596","O=C(O)CCCC(=O)C","C=C(O)CCC=C(O)O","InChI=1S/C6H10O3/c1-5(7)3-2-4-6(8)9/h4,7-9H,1-3H2","NFXISGJXFNRUQS-UHFFFAOYSA-N","?","18","potentiometric","apparent","?","acidic",4.66
"13258","[Se](=O)(O)C2(=CC=1(C(=CC=CC=1)C=C2))","O[Se](=O)C1=CC2=CC=CC=C2C=C1","InChI=1S/C10H8O2Se/c11-13(12)10-6-5-8-3-1-2-4-9(8)7-10/h1-7H,(H,11,12)","IWILMTPPIHHOPE-UHFFFAOYSA-N","?","25","potentiometric","a/apparent","?","acidic",4.67
"16955","[Se](=O)(O)C2(=C(C1(=CC=CC=C1))C=CC=C2)","O[Se](=O)C1C=CC=CC=1C1C=CC=CC=1","InChI=1S/C12H10O2Se/c13-15(14)12-9-5-4-8-11(12)10-6-2-1-3-7-10/h1-9H,(H,13,14)","QCVIBVJVURPKAC-UHFFFAOYSA-N","?","25","potentiometric","apparent","?","acidic",4.67
"16574","O=C(O)CC(C1(=CC(=C(O)C=C1)C))C2(=CC=CC=C2)","CC1C=C(C=CC=1O)C(C=C(O)O)C1C=CC=CC=1","InChI=1S/C16H16O3/c1-11-9-13(7-8-15(11)17)14(10-16(18)19)12-5-3-2-4-6-12/h2-10,14,17-19H,1H3","NBMCGROFHVGMPS-UHFFFAOYSA-N","?","25",,"a/apparent","?","acidic",4.67
"15730","O=C(O)C2(=CC=C(N=NC=1(C(=NNC=1N)N))C=C2)","NC1=NNC(N)=C1N=NC1C=CC(=CC=1)C(O)=O","InChI=1S/C10H10N6O2/c11-8-7(9(12)16-15-8)14-13-6-3-1-5(2-4-6)10(17)18/h1-4H,(H,17,18)(H5,11,12,15,16)","NCWCSLXGDWIAIT-UHFFFAOYSA-N","?","25","spectrophotometric","a2/apparent","?","acidic",4.68
"17601","O=C(O)CCC=C","C=CCC=C(O)O","InChI=1S/C5H8O2/c1-2-3-4-5(6)7/h2,4,6-7H,1,3H2","FCJLQSUYYSDQAI-UHFFFAOYSA-N","?","18","mean from 2","thermodynamic","?","acidic",4.68
"14055","O=C(C(=O)C)CC(=O)C(=O)C","CC(=O)C(O)=CC(=O)C(=C)O","InChI=1S/C7H8O4/c1-4(8)6(10)3-7(11)5(2)9/h3,8,11H,1H2,2H3","VCUALKPZQNQCNL-UHFFFAOYSA-N","?","25","potentiometric","a1/apparent","?","acidic",4.68
"14251","O=C(O)C1(=CC(=C(O)C=C1)C)","CC1C=C(C=CC=1O)C(O)=O","InChI=1S/C8H8O3/c1-5-4-6(8(10)11)2-3-7(5)9/h2-4,9H,1H3,(H,10,11)","LTFHNKUKQYVHDX-UHFFFAOYSA-N","?","20","potentiometric","a/thermodynamic","?","acidic",4.68
"15078","O=C(OCC)N1(CCC2(=NOC(=C2(CC1))O))","CCOC(=O)N1CCC2=C(O)ON=C2CC1","InChI=1S/C10H14N2O4/c1-2-15-10(14)12-5-3-7-8(4-6-12)11-16-9(7)13/h13H,2-6H2,1H3","LVMUHDZVLAXEJZ-UHFFFAOYSA-N","?","25","potentiometric","a1/apparent","?","acidic",4.7
"16046","O=C(O)CCCCCCCCCC[NH2+]CC=C","C=CCNCCCCCCCCCC=C(O)O","InChI=1S/C14H27NO2/c1-2-12-15-13-10-8-6-4-3-5-7-9-11-14(16)17/h2,11,15-17H,1,3-10,12-13H2","RUQXAEIDTWIAEE-UHFFFAOYSA-N","?",,"potentiometric","a1/apparent","?","acidic",4.7
"15657","ClC1(=C(C=CC=C1)C(C2(=CC=CC=C2))CC(=O)O)","OC(O)=CC(C1C=CC=CC=1Cl)C1C=CC=CC=1","InChI=1S/C15H13ClO2/c16-14-9-5-4-8-12(14)13(10-15(17)18)11-6-2-1-3-7-11/h1-10,13,17-18H","OTNLJBIFHSDXFO-UHFFFAOYSA-N","?","25","conductometric","a/apparent","?","acidic",4.7
"10348","O=C(O)C=CC(C)C","CC(C)C=CC(O)=O","InChI=1S/C6H10O2/c1-5(2)3-4-6(7)8/h3-5H,1-2H3,(H,7,8)","QAOXMQCWUWZZNC-UHFFFAOYSA-N","?","25","conductometric","apparent","?","acidic",4.7
"13977","S2(C1(=[N+](C(=CC=C1O)C)CC2))","CC1=CC=C(O)C2SCC[N+]=21","InChI=1S/C8H9NOS/c1-6-2-3-7(10)8-9(6)4-5-11-8/h2-3H,4-5H2,1H3/p+1","IJQXSEDDFABXPP-UHFFFAOYSA-O","?","20","potentiometric","a2/apparent","?","acidic",4.7
"14058","O=C(O)C(C=C=C(C)C)(C)C","CC(C)=C=CC(C)(C)C(O)=O","InChI=1S/C9H14O2/c1-7(2)5-6-9(3,4)8(10)11/h6H,1-4H3,(H,10,11)","ZXTJEJTUFAWGDH-UHFFFAOYSA-N","?","25","potentiometric","a1/apparent","?","acidic",4.7
"10339","O=C(O)C=CCCC","CCCC=CC(O)=O","InChI=1S/C6H10O2/c1-2-3-4-5-6(7)8/h4-5H,2-3H2,1H3,(H,7,8)","NIONDZDPPYHYKY-UHFFFAOYSA-N","?","25","conductometric","apparent","?","acidic",4.71
"11462","O=C(O)C1(CC(O)CCC1)","OC(O)=C1CC(O)CCC1","InChI=1S/C7H12O3/c8-6-3-1-2-5(4-6)7(9)10/h6,8-10H,1-4H2","RMIJZZBVUPBNSP-UHFFFAOYSA-N","?, ?","25","potentiometric","a/thermodynamic","?, ?","acidic",4.71
"14256","O=C(O)C1(=C(C=C(O)C=C1)C)","CC1C=C(O)C=CC=1C(O)=O","InChI=1S/C8H8O3/c1-5-4-6(9)2-3-7(5)8(10)11/h2-4,9H,1H3,(H,10,11)","BBMFSGOFUHEVNP-UHFFFAOYSA-N","?","20","potentiometric","a/thermodynamic","?","acidic",4.71
"10342","O=C(O)CCC=CC","CC=CCC=C(O)O","InChI=1S/C6H10O2/c1-2-3-4-5-6(7)8/h2-3,5,7-8H,4H2,1H3","VLISRVLGJCEGDG-UHFFFAOYSA-N","?","25","conductometric","thermodynamic","?","acidic",4.72
"12226","[70SH]C(C1(=CC=CC=C1))=CC(=O)NCC","CCNC(=O)C=C(S)C1C=CC=CC=1","InChI=1S/C11H13NOS/c1-2-12-11(13)8-10(14)9-6-4-3-5-7-9/h3-8,14H,2H2,1H3,(H,12,13)","VKJCMLJWKJOLHI-UHFFFAOYSA-N","?","22","spectrophotometric","a1/apparent","?","acidic",4.73
"10355","O=C(O)C(CC)CC","CCC(CC)=C(O)O","InChI=1S/C6H12O2/c1-3-5(4-2)6(7)8/h7-8H,3-4H2,1-2H3","CALFIPIKZIUCFG-UHFFFAOYSA-N","?","18","mean from 2","apparent","?","acidic",4.73
"17446","[SeH]CC[NH+](C)C","CN(C)CC[SeH]","InChI=1S/C4H11NSe/c1-5(2)3-4-6/h6H,3-4H2,1-2H3","DIIOWUSRPSUBTN-UHFFFAOYSA-N","?","22","potentiometric","a1/apparent","?","acidic",4.74
"11547","O=[N+]([O-])NC1(=CC=CC=C1)","[O-][N+](=O)NC1C=CC=CC=1","InChI=1S/C6H6N2O2/c9-8(10)7-6-4-2-1-3-5-6/h1-5,7H","VBEGHXKAFSLLGE-UHFFFAOYSA-N","?","15","potentiometric","a/apparent","?","acidic",4.74
"11471","O=C(O)C1(C(O)CCCC1)","OC(O)=C1CCCCC1O","InChI=1S/C7H12O3/c8-6-4-2-1-3-5(6)7(9)10/h6,8-10H,1-4H2","LNWBSINERDYGMY-UHFFFAOYSA-N","?, ?","25","potentiometric","a/thermodynamic","?, ?","acidic",4.74
"15041","O=C(O)CC=1(OC=2(C=C(C)C=C(C=2(C=1O))C))","CC1C=C2OC(C=C(O)O)=C(O)C2=C(C)C=1","InChI=1S/C12H12O4/c1-6-3-7(2)11-8(4-6)16-9(12(11)15)5-10(13)14/h3-5,13-15H,1-2H3","VPMJXFHUHFBKJB-UHFFFAOYSA-N","?",,"potentiometric","a/apparent","?","acidic",4.75
"14906","O=C(O)CCCCC(C#N)C1(=CC=CC=C1)","N#CC(CCCC=C(O)O)C1C=CC=CC=1","InChI=1S/C13H15NO2/c14-10-12(8-4-5-9-13(15)16)11-6-2-1-3-7-11/h1-3,6-7,9,12,15-16H,4-5,8H2","QZKNFDNQJMSOIB-UHFFFAOYSA-N","?","25","conductometric","a/apparent","?","acidic",4.75
"17332","O=C(O)C(C)C","CC(C)=C(O)O","InChI=1S/C4H8O2/c1-3(2)4(5)6/h5-6H,1-2H3","RLLJBUZYAVNFOG-UHFFFAOYSA-N","?","23","mean from 4","a1/apparent","COOH","acidic",4.76
"11838","O=C(O)C(CCCC)CC","CCCCC(CC)=C(O)O","InChI=1S/C8H16O2/c1-3-5-6-7(4-2)8(9)10/h9-10H,3-6H2,1-2H3","LCPDHYCGIAGGON-UHFFFAOYSA-N","?","25","potentiometric","a1/apparent","-COOH","acidic",4.76
"15059","S(=O)(=O)(NC=1(SC=NN=1))C2(=CC=C(N)C=C2)","NC1C=CC(=CC=1)S(=O)(=O)NC1=NN=CS1","InChI=1S/C8H8N4O2S2/c9-6-1-3-7(4-2-6)16(13,14)12-8-11-10-5-15-8/h1-5H,9H2,(H,11,12)","ATEAASNFYTUARU-UHFFFAOYSA-N","?",,"potentiometric","a/apparent","?","acidic",4.77
"10517","O=C(O)CCCC1(=CC=CC=C1)","OC(O)=CCCC1C=CC=CC=1","InChI=1S/C10H12O2/c11-10(12)8-4-7-9-5-2-1-3-6-9/h1-3,5-6,8,11-12H,4,7H2","MWLNKVWPTZRTNE-UHFFFAOYSA-N","?","25","potentiometric","a1/apparent","COOH","acidic",4.78
"15048","O=C1(C(O)=C(C(=O)C2(=C1C=CC=C2))C=CC)","CC=CC1=C(O)C(=O)C2C=CC=CC=2C1=O","InChI=1S/C13H10O3/c1-2-5-10-11(14)8-6-3-4-7-9(8)12(15)13(10)16/h2-7,16H,1H3","SOHLFUWDNFUZAK-UHFFFAOYSA-N","?",,"spectrophotometric","a/apparent","?","acidic",4.78
"14533","O[N+](C1(=C(C=CC=C1)C))(C)C","CC1C=CC=CC=1[N+](C)(C)O","InChI=1S/C9H14NO/c1-8-6-4-5-7-9(8)10(2,3)11/h4-7,11H,1-3H3/q+1","YJOCJRJWXLUUQS-UHFFFAOYSA-N","?","20","potentiometric","a/apparent","?","acidic",4.78
"12577","O=C(O)C(=CCCC)C","CC(=CCCC)C(O)=O","InChI=1S/C7H12O2/c1-3-4-5-6(2)7(8)9/h5H,3-4H2,1-2H3,(H,8,9)","AKOVMBAFZSPEQU-UHFFFAOYSA-N","?, ?","25","potentiometric","a/apparent","?, ?","acidic",4.785
"17326","O=C(O)C=CC","CC=CC(O)=O","InChI=1S/C4H6O2/c1-2-3-4(5)6/h2-3H,1H3,(H,5,6)","LDHQCZJRKDOVOX-UHFFFAOYSA-N","?","27","mean from 2","a1/apparent","COOH","acidic",4.79
"17607","O=C(O)CC(C)C","CC(C)C=C(O)O","InChI=1S/C5H10O2/c1-4(2)3-5(6)7/h3-4,6-7H,1-2H3","NLJSOOYMEWHJJJ-UHFFFAOYSA-N","?","22","mean from 6","a1/apparent","COOH","acidic",4.79
"17766","O=C(O)C1(CCC1)","OC(O)=C1CCC1","InChI=1S/C5H8O2/c6-5(7)4-2-1-3-4/h6-7H,1-3H2","FSTADCQIMKQNSD-UHFFFAOYSA-N","?","25","potentiometric","a/thermodynamic","?","acidic",4.79
"13508","O=C(O)CCC1(=C(OC)C=CC=C1)","COC1C=CC=CC=1CC=C(O)O","InChI=1S/C10H12O3/c1-13-9-5-3-2-4-8(9)6-7-10(11)12/h2-5,7,11-12H,6H2,1H3","UIJSTNSXUSPFNM-UHFFFAOYSA-N","?","25","conductometric","thermodynamic","?","acidic",4.8
"12281","O=C(O)CCC(O)C=C=CC#CC#C","C#CC#CC=C=CC(O)CC=C(O)O","InChI=1S/C11H10O3/c1-2-3-4-5-6-7-10(12)8-9-11(13)14/h1,5,7,9-10,12-14H,8H2","ZKLXHQZOBHROMA-UHFFFAOYSA-N","?",,,"apparent","?","acidic",4.8
"14921","O=C(O)C(C(C1(=CC=CC=C1))C(=O)N)(C)C","CC(C)(C(C(=N)O)C1C=CC=CC=1)C(O)=O","InChI=1S/C12H15NO3/c1-12(2,11(15)16)9(10(13)14)8-6-4-3-5-7-8/h3-7,9H,1-2H3,(H2,13,14)(H,15,16)","KCTLZALRTLNALN-UHFFFAOYSA-N","?","25",,"apparent","?","acidic",4.8
"17328","O=C(O)CCC","CCC=C(O)O","InChI=1S/C4H8O2/c1-2-3-4(5)6/h3,5-6H,2H2,1H3","CPRDLBPDNZTCSM-UHFFFAOYSA-N","?","23","mean from 8","a1/apparent","COOH","acidic",4.8
"12579","O=C(O)C(=C)CCCC","CCCCC(=C)C(O)=O","InChI=1S/C7H12O2/c1-3-4-5-6(2)7(8)9/h2-5H2,1H3,(H,8,9)","FEUFEGJTJIHPOF-UHFFFAOYSA-N","?","25","potentiometric","a/apparent","?","acidic",4.8
"11428","[Se](=O)(O)C1(=CC(=CC=C1)C)","CC1C=C(C=CC=1)[Se](O)=O","InChI=1S/C7H8O2Se/c1-6-3-2-4-7(5-6)10(8)9/h2-5H,1H3,(H,8,9)","RHEXIQOKFREVJO-UHFFFAOYSA-N","?","25","potentiometric","apparent","?","acidic",4.8
"13298","O(C2(=C(C1(=NN=NN1))C=CC=C2))C","COC1C=CC=CC=1C1NN=NN=1","InChI=1S/C8H8N4O/c1-13-7-5-3-2-4-6(7)8-9-11-12-10-8/h2-5H,1H3,(H,9,10,11,12)","ANGNJNYCUCJQJV-UHFFFAOYSA-N","?","20","spectrophotometric","a1/apparent","NH","acidic",4.8
"12258","S(=O)(=O)(NC(=O)C)C1(=CC=C(C)C=C1)","CC1C=CC(=CC=1)S(=O)(=O)/N=C(\C)/O","InChI=1S/C9H11NO3S/c1-7-3-5-9(6-4-7)14(12,13)10-8(2)11/h3-6H,1-2H3,(H,10,11)","BVJCFOOIOSGZFW-UHFFFAOYSA-N","?","22.5","potentiometric","a/apparent","?","acidic",4.8
"13531","O=C(O)CC1(C(C(C(=O)C)C1)(C)C)","CC1(C)C(CC1C(=C)O)C=C(O)O","InChI=1S/C10H16O3/c1-6(11)8-4-7(5-9(12)13)10(8,2)3/h5,7-8,11-13H,1,4H2,2-3H3","VPQIYTDCZSOZHL-UHFFFAOYSA-N","?",,"potentiometric","a/apparent","?","acidic",4.82