"Molecule name","OriginalSmiles","Canonical_QSARr","InChI_Code_QSARr","InChI Key_QSARr","Salt_Solvent (Concatenate)","temp","method","type","group","basicOrAcidic","pKa"
"16592","S(=O)(=O)(NC1(=CC=CC=C1))C2(=CC([N+](=O)[O-])=CC=C2)","[O-][N+](=O)C1C=C(C=CC=1)S(=O)(=O)NC1C=CC=CC=1","InChI=1S/C12H10N2O4S/c15-14(16)11-7-4-8-12(9-11)19(17,18)13-10-5-2-1-3-6-10/h1-9,13H","OXJDTNIWMQCOQT-UHFFFAOYSA-N","?","20","spectrophotometric","a/apparent","?","acidic",7.5
"16869","S1(C(=NC2(=C1C=CC=C2))N=NC=4(C=3(C(=NC=CC=3)C(O)=C(C=4)C)))","CC1C=C(N=NC2=NC3C=CC=CC=3S2)C2=CC=CN=C2C=1O","InChI=1S/C17H12N4OS/c1-10-9-13(11-5-4-8-18-15(11)16(10)22)20-21-17-19-12-6-2-3-7-14(12)23-17/h2-9,22H,1H3","YXRADZNRMOQXHG-UHFFFAOYSA-N","?","22",,"a1/apparent","OH","acidic",7.5
"15429","O=C(C1(=CC=C(O)C=C1))C([NH+](CC2(=CC=CC=C2))C)C","CC(=C(O)C1=CC=C(O)C=C1)N(C)CC1C=CC=CC=1","InChI=1S/C17H19NO2/c1-13(17(20)15-8-10-16(19)11-9-15)18(2)12-14-6-4-3-5-7-14/h3-11,19-20H,12H2,1-2H3","OQQBHJSPDDHSSE-UHFFFAOYSA-N","?","29",,"a/apparent","?","acidic",7.5
"13552","FC(F)(F)C1(=NNC(=C1)C(F)(F)F)","FC(F)(F)C1C=C(NN=1)C(F)(F)F","InChI=1S/C5H2F6N2/c6-4(7,8)2-1-3(13-12-2)5(9,10)11/h1H,(H,12,13)","NGDDUAYSWPUSLX-UHFFFAOYSA-N","?","25",,"a1/apparent","N-H","acidic",7.51
"13416","ClC2(=C(O)C1(=NC=CC=C1C(=C2)Cl))","OC1C2=NC=CC=C2C(Cl)=CC=1Cl","InChI=1S/C9H5Cl2NO/c10-6-4-7(11)9(13)8-5(6)2-1-3-12-8/h1-4,13H","WDFKMLRRRCGAKS-UHFFFAOYSA-N","?","25","mean from 2","a2/thermodynamic","?","acidic",7.51
"13702","O=C(OC)C=C(O)C1(=CC=NC=C1)","COC(=O)C=C(O)C1C=CN=CC=1","InChI=1S/C9H9NO3/c1-13-9(12)6-8(11)7-2-4-10-5-3-7/h2-6,11H,1H3","IPUNTQVPZISLES-UHFFFAOYSA-N","?","25","spectrophotometric","a1/apparent","?","acidic",7.51
"13843","OC2(=CC=1(C(=NN=CC=1)C=C2))","OC1=CC2=CC=NN=C2C=C1","InChI=1S/C8H6N2O/c11-7-1-2-8-6(5-7)3-4-9-10-8/h1-5,11H","VITWLPFZOYHMOK-UHFFFAOYSA-N","?","20","potentiometric","a2/apparent","?","acidic",7.52
"14830","[Br]C3(=C([Br])C([Br])=C4(C(C1(=CC(=C(O)C=C1)C))(C2(=CC(=C(O)C=C2)C))OS(C4(=C3[Br]))(=O)=O))","CC1C=C(C=CC=1O)C1(OS(=O)(=O)C2C1=C(Br)C(Br)=C(Br)C=2Br)C1=CC(C)=C(O)C=C1","InChI=1S/C21H14Br4O5S/c1-9-7-11(3-5-13(9)26)21(12-4-6-14(27)10(2)8-12)15-16(22)17(23)18(24)19(25)20(15)31(28,29)30-21/h3-8,26-27H,1-2H3","BDQVTKFIRQXLHK-UHFFFAOYSA-N","?","25","spectrophotometric","a/apparent","?","acidic",7.53
"14795","[Br]C3(=CC=2(C1(=C(C=CC=C1)C(C=2C=C3)[P+](C4(=CC=CC=C4))(C5(=CC=CC=C5))C6(=CC=CC=C6))))","BrC1=CC2C3C=CC=CC=3C(C=2C=C1)[P+](C1C=CC=CC=1)(C1C=CC=CC=1)C1C=CC=CC=1","InChI=1S/C31H23BrP/c32-23-20-21-29-30(22-23)27-18-10-11-19-28(27)31(29)33(24-12-4-1-5-13-24,25-14-6-2-7-15-25)26-16-8-3-9-17-26/h1-22,31H/q+1","DCICCEKPQKAACP-UHFFFAOYSA-N","?","25","spectrophotometric","a1/apparent","?","acidic",7.53
"16163","S(=O)(=O)(NC1(=CC(F)=CC=C1))C2(=CC=CC=C2)","O=S(=O)(NC1=CC(F)=CC=C1)C1C=CC=CC=1","InChI=1S/C12H10FNO2S/c13-10-5-4-6-11(9-10)14-17(15,16)12-7-2-1-3-8-12/h1-9,14H","ZBASZKBDYLJNPV-UHFFFAOYSA-N","?","25","mean from 2","a1/apparent","NH","acidic",7.54
"15501","OC=2(C(C1(=C(O)C=CC=C1))=CC3(=CC=CC=C3(C=2)))","OC1C=CC=CC=1C1=CC2=CC=CC=C2C=C1O","InChI=1S/C16H12O2/c17-15-8-4-3-7-13(15)14-9-11-5-1-2-6-12(11)10-16(14)18/h1-10,17-18H","LGKQEBNUBJCFND-UHFFFAOYSA-N","?","20","spectrophotometric","a1/apparent","?","acidic",7.55
"12223","S=C(NC1(=CC(=CC=C1)C))CC(=O)C","CC1C=C(C=CC=1)NC(=S)CC(=C)O","InChI=1S/C11H13NOS/c1-8-4-3-5-10(6-8)12-11(14)7-9(2)13/h3-6,13H,2,7H2,1H3,(H,12,14)","ZDUPZUWDFSXCIY-UHFFFAOYSA-N","?","25","mean from 2","a1/apparent","?","acidic",7.56
"12684","S(=O)(=O)(NC)C(F)(F)F","CNS(=O)(=O)C(F)(F)F","InChI=1S/C2H4F3NO2S/c1-6-9(7,8)2(3,4)5/h6H,1H3","IJOCNCZJDBTBIP-UHFFFAOYSA-N","?","25","potentiometric","a1/apparent","?","acidic",7.56
"13858","OC2(=CC1(=NN=CC=C1C=C2))","OC1=CC2=NN=CC=C2C=C1","InChI=1S/C8H6N2O/c11-7-2-1-6-3-4-9-10-8(6)5-7/h1-5,11H","TVQZTIHYLLXSFD-UHFFFAOYSA-N","?","20","potentiometric","a2/apparent","?","acidic",7.56
"17352","SCC(=O)OC","COC(O)=CS","InChI=1S/C3H6O2S/c1-5-3(4)2-6/h2,4,6H,1H3","UEUQGTNQTNROPX-UHFFFAOYSA-N","?","25","spectrophotometric","a1/apparent","?","acidic",7.57
"10870","[Br]C1(=CC(=C(O)C=C1)C[NH+](C)C)","CN(C)CC1=CC(Br)=CC=C1O","InChI=1S/C9H12BrNO/c1-11(2)6-7-5-8(10)3-4-9(7)12/h3-5,12H,6H2,1-2H3","VKWZAKOXYMCAER-UHFFFAOYSA-N","?","25","potentiometric","a1/apparent","OH","acidic",7.58
"13339","OC1(=NNC(=C1C)C2(=CC=CC=C2))","CC1C(O)=NNC=1C1C=CC=CC=1","InChI=1S/C10H10N2O/c1-7-9(11-12-10(7)13)8-5-3-2-4-6-8/h2-6H,1H3,(H2,11,12,13)","KITWZJXZJOOKTF-UHFFFAOYSA-N","?",,"potentiometric","a/apparent","?","acidic",7.6
"15799","S(=O)(=O)(NC1(=NC=CC=C1O))C2(=CC=C(N)C=C2)","NC1C=CC(=CC=1)S(=O)(=O)NC1=NC=CC=C1O","InChI=1S/C11H11N3O3S/c12-8-3-5-9(6-4-8)18(16,17)14-11-10(15)2-1-7-13-11/h1-7,15H,12H2,(H,13,14)","ARYYNVLLPVRPNP-UHFFFAOYSA-N","?",,,"a/apparent","?","acidic",7.6
"11291","[N+](=NC1(=NC=NC2(=C1NC=N2)))=[N-]","N=[N+]=NC1=NC=NC2N=CNC=21","InChI=1S/C5H3N7/c6-12-11-5-3-4(8-1-7-3)9-2-10-5/h1-2,6H/p+1","BZSSXEHSNQEUPP-UHFFFAOYSA-O","?",,"spectrophotometric","a/apparent","?","acidic",7.6
"13134","O=C1(N(O)C(=O)CCC1)","ON1C(O)=CCC=C1O","InChI=1S/C5H7NO3/c7-4-2-1-3-5(8)6(4)9/h2-3,7-9H,1H2","KPXZNQLVGOMTQQ-UHFFFAOYSA-N","?",,"potentiometric","a/apparent","?","acidic",7.6
"11444","[Br]C1(=C(O)C(=CC(=C1)[Br])C)","CC1=CC(Br)=CC(Br)=C1O","InChI=1S/C7H6Br2O/c1-4-2-5(8)3-6(9)7(4)10/h2-3,10H,1H3","XMKVPKGYUXVWEB-UHFFFAOYSA-N","?","25","potentiometric","apparent","?","acidic",7.6
"12405","S(=O)(=O)([O-])C2(=C1(NN=CC1=C(O)C=C2))","OC1=CC=C(C2NN=CC1=2)S(O)(=O)=O","InChI=1S/C7H6N2O4S/c10-5-1-2-6(14(11,12)13)7-4(5)3-8-9-7/h1-3,10H,(H,8,9)(H,11,12,13)","FRVYWWYDLUADEQ-UHFFFAOYSA-N","?","25","potentiometric","a/apparent","?","acidic",7.6
"11436","SC1(=C(C(=O)[O-])C=CC=C1)","OC(=O)C1=CC=CC=C1S","InChI=1S/C7H6O2S/c8-7(9)5-3-1-2-4-6(5)10/h1-4,10H,(H,8,9)","NBOMNTLFRHMDEZ-UHFFFAOYSA-N","?","25","spectrophotometric","a2/apparent","?","acidic",7.6
"13473","S1(=O)(=O)(N=C(NC2(=C1C=NC=C2))C)","CC1NC2C=CN=CC=2S(=O)(=O)N=1","InChI=1S/C7H7N3O2S/c1-5-9-6-2-3-8-4-7(6)13(11,12)10-5/h2-4H,1H3,(H,9,10)","NKKREMMBGZRZTR-UHFFFAOYSA-N","?","25",,"a1/apparent","?","acidic",7.6
"14234","[S+](C1(=C(C=C(O)C=C1)C))(C)C","CC1C=C(O)C=CC=1[S+](C)C","InChI=1S/C9H12OS/c1-7-6-8(10)4-5-9(7)11(2)3/h4-6H,1-3H3/p+1","JWERJILXQOHJFS-UHFFFAOYSA-O","?","25","potentiometric","a/apparent","?","acidic",7.6
"15430","S(=O)(=O)(NC1(=CC(=CC=C1)C(F)(F)F))C2(=CC=CC=C2)","O=S(=O)(NC1=CC(=CC=C1)C(F)(F)F)C1C=CC=CC=1","InChI=1S/C13H10F3NO2S/c14-13(15,16)10-5-4-6-11(9-10)17-20(18,19)12-7-2-1-3-8-12/h1-9,17H","YPMHGAUQQLJHJH-UHFFFAOYSA-N","?","25","mean from 4","a1/apparent","NH","acidic",7.63
"13248","O=C2(OC1(=C(C=C(O)C(=C1)O)C=C2))","OC1=CC2C=CC(=O)OC=2C=C1O","InChI=1S/C9H6O4/c10-6-3-5-1-2-9(12)13-8(5)4-7(6)11/h1-4,10-11H","ILEDWLMCKZNDJK-UHFFFAOYSA-N","?","20","potentiometric","a1/apparent","H of 7-OH","acidic",7.63
"10328","S1(N=NC=C1C=NO)","O=NCC1=CN=NS1","InChI=1S/C3H3N3OS/c7-5-2-3-1-4-6-8-3/h1H,2H2","WNJFGUYQYHRAON-UHFFFAOYSA-N","?","25","potentiometric","a1/apparent","?","acidic",7.64
"17609","O=C(C=C(O)C)C","CC(O)=CC(=C)O","InChI=1S/C5H8O2/c1-4(6)3-5(2)7/h3,6-7H,1H2,2H3","QLPCGIRHZACXEO-UHFFFAOYSA-N","?","25","mean from 2","a1/apparent","O-H","acidic",7.64
"13472","S1(=O)(=O)(N=C(NC2(=C1C=CC=N2))C)","CC1NC2N=CC=CC=2S(=O)(=O)N=1","InChI=1S/C7H7N3O2S/c1-5-9-7-6(3-2-4-8-7)13(11,12)10-5/h2-4H,1H3,(H,8,9,10)","BTHSSYLQNVNWJG-UHFFFAOYSA-N","?","25",,"a1/apparent","?","acidic",7.64
"15707","S=C2(N(C(=O)C(C1(=CC=CC=C1))(CC)C(N2)=O)C)","CCC1(C2C=CC=CC=2)C(=O)NC(=S)N(C)C1=O","InChI=1S/C13H14N2O2S/c1-3-13(9-7-5-4-6-8-9)10(16)14-12(18)15(2)11(13)17/h4-8H,3H2,1-2H3,(H,14,16,18)","QVHJPSYNMGZFFD-UHFFFAOYSA-N","?","25","spectrophotometric","a1/apparent","?","acidic",7.65
"10415","O=C(C=NO)C=NO","O=C(CN=O)CN=O","InChI=1S/C3H4N2O3/c6-3(1-4-7)2-5-8/h1-2H2","FVZBTDOGQQLPOL-UHFFFAOYSA-N","?","30","potentiometric","a1/apparent","?","acidic",7.65
"12912","S=C1(NC(=S)C(N1)(C)C)","CC1(C)NC(=S)NC1=S","InChI=1S/C5H8N2S2/c1-5(2)3(8)6-4(9)7-5/h1-2H3,(H2,6,7,8,9)","NLEGOBBGDOATPO-UHFFFAOYSA-N","?",,"potentiometric","a/apparent","?","acidic",7.65
"10981","S2(=O)(=O)(C1(=C(C=CC=C1)C(=C2)O))","OC1=CS(=O)(=O)C2C=CC=CC=21","InChI=1S/C8H6O3S/c9-7-5-12(10,11)8-4-2-1-3-6(7)8/h1-5,9H","ZJQZMNWBIAVMJK-UHFFFAOYSA-N","?","20","potentiometric","a/apparent","?","acidic",7.65
"10579","O=C(C1(=CC(OC)=C(O)C=C1))C","COC1C=C(C=CC=1O)C(=C)O","InChI=1S/C9H10O3/c1-6(10)7-3-4-8(11)9(5-7)12-2/h3-5,10-11H,1H2,2H3","LVVNAZLLSMMYCU-UHFFFAOYSA-N","?","25","mean from 2","a/apparent","?","acidic",7.65
"13766","S(C1(=NC=2(N=CN=CC=2(N1))))C","CSC1NC2C=NC=NC=2N=1","InChI=1S/C6H6N4S/c1-11-6-9-4-2-7-3-8-5(4)10-6/h2-3H,1H3,(H,7,8,9,10)","OOUSHFSJKWPYDZ-UHFFFAOYSA-N","?","20","potentiometric","a2/apparent","?","acidic",7.67
"15966","O=[N+]([O-])C2(=C(OC(=O)C1(=CC=C(O)C=C1))C=CC(=C2)[N+](=O)[O-])","[O-][N+](=O)C1C=C(C=CC=1OC(=O)C1C=CC(O)=CC=1)[N+]([O-])=O","InChI=1S/C13H8N2O7/c16-10-4-1-8(2-5-10)13(17)22-12-6-3-9(14(18)19)7-11(12)15(20)21/h1-7,16H","FTHLSFAAYTZQIM-UHFFFAOYSA-N","?","25","spectrophotometric","a1/apparent","?","acidic",7.68
"17442","SCC[NH+](C)C","CN(C)CCS","InChI=1S/C4H11NS/c1-5(2)3-4-6/h6H,3-4H2,1-2H3","DENMGZODXQRYAR-UHFFFAOYSA-N","?","23","mean from 3","a1/apparent","?","acidic",7.68
"16216","S(=O)(=O)(NC1(=NC=CC=N1))C2(=CC=C(O)C=C2)","OC1C=CC(=CC=1)S(=O)(=O)NC1N=CC=CN=1","InChI=1S/C10H9N3O3S/c14-8-2-4-9(5-3-8)17(15,16)13-10-11-6-1-7-12-10/h1-7,14H,(H,11,12,13)","JQSRUHVUXRYZBW-UHFFFAOYSA-N","?, ?",,"spectrophotometric","a1/apparent","?, ?","acidic",7.6850000000000005
"16555","S(C1(=NN=C2(N=C(NC2(=N1))C3(=C(OC)C=C(OC)C=C3))))C","COC1C=C(C=CC=1C1NC2=NC(=NN=C2N=1)SC)OC","InChI=1S/C13H13N5O2S/c1-19-7-4-5-8(9(6-7)20-2)10-14-11-12(15-10)17-18-13(16-11)21-3/h4-6H,1-3H3,(H,14,15,16,17,18)","RWJQZRFKTLDFKK-UHFFFAOYSA-N","?","25","spectrophotometric","a2/apparent","?","acidic",7.69
"11497","S(=O)(=O)(N)C=1(SC(N)=NN=1)","NC1=NN=C(S1)S(N)(=O)=O","InChI=1S/C2H4N4O2S2/c3-1-5-6-2(9-1)10(4,7)8/h(H2,3,5)(H2,4,7,8)","VGMVBPQOACUDRU-UHFFFAOYSA-N","?",,"mean from 3","a/apparent","?","acidic",7.69
"12232","[Br]C1(=CC(=C(O)C=C1)C[NH+](CC)CC)","CCN(CC1=CC(Br)=CC=C1O)CC","InChI=1S/C11H16BrNO/c1-3-13(4-2)8-9-7-10(12)5-6-11(9)14/h5-7,14H,3-4,8H2,1-2H3","KHSBXTXLUWLXRT-UHFFFAOYSA-N","?","25","mean from 5","a1/apparent","N(1+)-H","acidic",7.7
"16712","OC1(=NNC(=C1CC2(=CC=CC=C2))C3(=CC=CC=C3))","OC1=NNC(=C1CC1C=CC=CC=1)C1C=CC=CC=1","InChI=1S/C16H14N2O/c19-16-14(11-12-7-3-1-4-8-12)15(17-18-16)13-9-5-2-6-10-13/h1-10H,11H2,(H2,17,18,19)","JMGNYTMPHMEMCN-UHFFFAOYSA-N","?",,"potentiometric","a/apparent","?","acidic",7.7
"11454","ClC1(=C(Cl)C=C(O)C=C1Cl)","OC1=CC(Cl)=C(Cl)C(Cl)=C1","InChI=1S/C6H3Cl3O/c7-4-1-3(10)2-5(8)6(4)9/h1-2,10H","GBNHEBQXJVDXSW-UHFFFAOYSA-N","?","25","mean from 3","a1/apparent","?","acidic",7.7
"12092","ClC2(=CC=1(N=NNC=1C=C2))","ClC1=CC2N=NNC=2C=C1","InChI=1S/C6H4ClN3/c7-4-1-2-5-6(3-4)9-10-8-5/h1-3H,(H,8,9,10)","PZBQVZFITSVHAW-UHFFFAOYSA-N","?",,"spectrophotometric","a/apparent","?","acidic",7.7
"14994","OC3(=CC2(=C(N)C=1(C(=CC=CC=1)[NH+]=C2C=C3)))","NC1C2=CC=CC=C2N=C2C=CC(O)=CC2=1","InChI=1S/C13H10N2O/c14-13-9-3-1-2-4-11(9)15-12-6-5-8(16)7-10(12)13/h1-7,16H,(H2,14,15)","IAPGOFICYOCHPX-UHFFFAOYSA-N","?","20","spectrophotometric","a/apparent","H+","acidic",7.71
"12820","ClC1(=C(Cl)C=CC=C1O)","OC1=CC=CC(Cl)=C1Cl","InChI=1S/C6H4Cl2O/c7-4-2-1-3-5(9)6(4)8/h1-3,9H","UMPSXRYVXUPCOS-UHFFFAOYSA-N","?","25",,"a1/thermodynamic","O-H","acidic",7.71
"10439","SCC[NH+](CC)CC","CCN(CCS)CC","InChI=1S/C6H15NS/c1-3-7(4-2)5-6-8/h8H,3-6H2,1-2H3","YBDSNEVSFQMCTL-UHFFFAOYSA-N","?","24","mean from 2","b/apparent","?","acidic",7.72
"12255","O=[N+]([O-])C1(=CC(=C(O)C(=C1)CC)CC)","CCC1=CC(=CC(CC)=C1O)[N+]([O-])=O","InChI=1S/C10H13NO3/c1-3-7-5-9(11(13)14)6-8(4-2)10(7)12/h5-6,12H,3-4H2,1-2H3","SAQPBBOTCDDZJQ-UHFFFAOYSA-N","?","25","potentiometric","a/apparent","?","acidic",7.73
"17134","OC2(=CC=C(N=NC1(=CC=NC=C1))C=C2)","OC1C=CC(=CC=1)N=NC1C=CN=CC=1","InChI=1S/C11H9N3O/c15-11-3-1-9(2-4-11)13-14-10-5-7-12-8-6-10/h1-8,15H","BCBHUOGPSRNKLW-UHFFFAOYSA-N","?","25","spectrophotometric","a1/apparent","Ar-OH","acidic",7.73
"13789","O(C1(=NC=2(N=CN=CC=2(N1))))C","COC1NC2C=NC=NC=2N=1","InChI=1S/C6H6N4O/c1-11-6-9-4-2-7-3-8-5(4)10-6/h2-3H,1H3,(H,7,8,9,10)","DYZBUFCIYODTAZ-UHFFFAOYSA-N","?",,"potentiometric","a2/apparent","?","acidic",7.73
"12142","O=C(N(C)C)CC(=O)C1(=CC=NC=C1)","CN(C)C(O)=CC(=O)C1C=CN=CC=1","InChI=1S/C10H12N2O2/c1-12(2)10(14)7-9(13)8-3-5-11-6-4-8/h3-7,14H,1-2H3","FRQRVSZRJVPCSK-UHFFFAOYSA-N","?","25","spectrophotometric","a1/apparent","?","acidic",7.75
"12488","O=C(C=2(C=1(C(=NC=CC=1)C(O)=CC=2)))C","C=C(O)C1=CC=C(O)C2=NC=CC=C12","InChI=1S/C11H9NO2/c1-7(13)8-4-5-10(14)11-9(8)3-2-6-12-11/h2-6,13-14H,1H2","YTLCSLDZJTZDFB-UHFFFAOYSA-N","?","25","potentiometric","a2/apparent","NH+","acidic",7.75
"16627","S(=O)(=O)(NC1(=CC=C(C(=O)[O-])C=C1))C2(=CC=CC=C2)","OC(=O)C1C=CC(=CC=1)NS(=O)(=O)C1C=CC=CC=1","InChI=1S/C13H11NO4S/c15-13(16)10-6-8-11(9-7-10)14-19(17,18)12-4-2-1-3-5-12/h1-9,14H,(H,15,16)","YAGOYAVZOJQMRT-UHFFFAOYSA-N","?","20","potentiometric","a2/apparent","?","acidic",7.75
"11964","ClC1(=NC=NC2(=C1NC=N2))","ClC1=NC=NC2N=CNC=21","InChI=1S/C5H3ClN4/c6-4-3-5(9-1-7-3)10-2-8-4/h1-2H,(H,7,8,9,10)","ZKBQDFAWXLTYKS-UHFFFAOYSA-N","?","20","mean from 2","a/apparent","?","acidic",7.75
"15179","S(=O)(=O)([O-])C=2(C=1(NN=CC=1C(=NO)C(C=2)=O))","OS(=O)(=O)C1=CC(=O)C(N=O)C2C=NNC1=2","InChI=1S/C7H5N3O5S/c11-4-1-5(16(13,14)15)7-3(2-8-9-7)6(4)10-12/h1-2,6H,(H,8,9)(H,13,14,15)","QYLCNDMVCHGSSV-UHFFFAOYSA-N","?","25","potentiometric","a/apparent","?","acidic",7.75
"11594","ON=CC1(=[N+](C=CC=C1)C)","C[N+]1C=CC=CC=1CN=O","InChI=1S/C7H9N2O/c1-9-5-3-2-4-7(9)6-8-10/h2-5H,6H2,1H3/q+1","MHOAUIZFSQGCNM-UHFFFAOYSA-N","?","25","potentiometric","a1/apparent","N-OH","acidic",7.75
"14240","O=C1(C(O)=CC=C(C=C1)OC)","COC1C=CC(=O)C(O)=CC=1","InChI=1S/C8H8O3/c1-11-6-2-4-7(9)8(10)5-3-6/h2-5H,1H3,(H,9,10)","SUQQIBNIHQSJII-UHFFFAOYSA-N","?","25","potentiometric","a/apparent","?","acidic",7.75
"11328","SCC[NH+](CCCC)CCCC","CCCCN(CCS)CCCC","InChI=1S/C10H23NS/c1-3-5-7-11(9-10-12)8-6-4-2/h12H,3-10H2,1-2H3","LOJUMTFVTNJLTF-UHFFFAOYSA-N","?","25","potentiometric","a1/apparent","SH","acidic",7.76
"13379","O=C2(C(=NO)C1(=C(C=CC=C1)C=C2))","O=C1C=CC2C=CC=CC=2C1N=O","InChI=1S/C10H7NO2/c12-9-6-5-7-3-1-2-4-8(7)10(9)11-13/h1-6,10H","QLVGTUKTMWWALI-UHFFFAOYSA-N","?","25","potentiometric","a/thermodynamic","?","acidic",7.77
"16165","[Br]C2(=CC=C(NS(=O)(=O)C1(=CC=CC=C1))C=C2)","O=S(=O)(NC1C=CC(Br)=CC=1)C1C=CC=CC=1","InChI=1S/C12H10BrNO2S/c13-10-6-8-11(9-7-10)14-17(15,16)12-4-2-1-3-5-12/h1-9,14H","HHLFFQAEABRCOJ-UHFFFAOYSA-N","?","25","mean from 4","a1/apparent","NH","acidic",7.78
"13271","O=C2(OC1(=C(C=CC(=C1)O)C(=C2)C))","CC1=CC(=O)OC2C=C(O)C=CC=21","InChI=1S/C10H8O3/c1-6-4-10(12)13-9-5-7(11)2-3-8(6)9/h2-5,11H,1H3","HSHNITRMYYLLCV-UHFFFAOYSA-N","?","25","spectrophotometric","a1/apparent","?","acidic",7.8
"12443","OC=1(NN=C(C=1CC)C2(=CC=CC=C2))","CCC1=C(O)NN=C1C1C=CC=CC=1","InChI=1S/C11H12N2O/c1-2-9-10(12-13-11(9)14)8-6-4-3-5-7-8/h3-7H,2H2,1H3,(H2,12,13,14)","XFXRDORYFDNBQZ-UHFFFAOYSA-N","?",,"potentiometric","a/apparent","?","acidic",7.8
"16715","OC=1(N(N=C(C=1C)C2(=CC=CC=C2))C3(=CC=CC=C3))","CC1=C(O)N(N=C1C1C=CC=CC=1)C1C=CC=CC=1","InChI=1S/C16H14N2O/c1-12-15(13-8-4-2-5-9-13)17-18(16(12)19)14-10-6-3-7-11-14/h2-11,19H,1H3","YTVHOWSQKWNZMC-UHFFFAOYSA-N","?",,"potentiometric","a/apparent","?","acidic",7.8
"14292","S(=O)(=O)(N)C=1(SC(NC)=NN=1)","CNC1=NN=C(S1)S(N)(=O)=O","InChI=1S/C3H6N4O2S2/c1-5-2-6-7-3(10-2)11(4,8)9/h1H3,(H,5,6)(H2,4,8,9)","HVHRKSCGBXNFKB-UHFFFAOYSA-N","?",,"spectrophotometric","a/apparent","?","acidic",7.8
"12816","ClC1(=C(O)C=CC(=C1)Cl)","OC1C=CC(Cl)=CC=1Cl","InChI=1S/C6H4Cl2O/c7-4-1-2-6(9)5(8)3-4/h1-3,9H","HFZWRUODUSTPEG-UHFFFAOYSA-N","?","25","mean from 7","a1/apparent","OH","acidic",7.8
"14324","O=NCC(=O)C1(=CN=CC=C1)","O=C(CN=O)C1=CN=CC=C1","InChI=1S/C7H6N2O2/c10-7(5-9-11)6-2-1-3-8-4-6/h1-4H,5H2","BGRCBTWBUMWAGB-UHFFFAOYSA-N","?","25","potentiometric","a/apparent","?","acidic",7.8
"13332","S(=O)(=O)(N)C=1(SC=2(C=CC=CC=2(N=1)))","NS(=O)(=O)C1=NC2C=CC=CC=2S1","InChI=1S/C7H6N2O2S2/c8-13(10,11)7-9-5-3-1-2-4-6(5)12-7/h1-4H,(H2,8,10,11)","SDYMYAFSQACTQP-UHFFFAOYSA-N","?",,"mean from 2","a1/apparent","?","acidic",7.8
"14282","O=CC1(=CC(=CC=C1)B(O)O)","OB(O)C1C=C(C=O)C=CC=1","InChI=1S/C7H7BO3/c9-5-6-2-1-3-7(4-6)8(10)11/h1-5,10-11H","HJBGZJMKTOMQRR-UHFFFAOYSA-N","?","25","potentiometric","a/apparent","?","acidic",7.8
"14379","O=[N+]([O-])C1(=C(O)C=CC(=C1)N)","NC1=CC(=C(O)C=C1)[N+]([O-])=O","InChI=1S/C6H6N2O3/c7-4-1-2-6(9)5(3-4)8(10)11/h1-3,9H,7H2","WHODQVWERNSQEO-UHFFFAOYSA-N","?","25","spectrophotometric","a1/apparent","?","acidic",7.81
"15113","OC2(=CC=C(N=NC=1(C(=NNC=1N)N))C=C2)","NC1=NNC(N)=C1N=NC1C=CC(O)=CC=1","InChI=1S/C9H10N6O/c10-8-7(9(11)15-14-8)13-12-5-1-3-6(16)4-2-5/h1-4,16H,(H5,10,11,14,15)","AYZRKFOEZQBUEA-UHFFFAOYSA-N","?","25","spectrophotometric","a2/apparent","?","acidic",7.81
"15508","O=C1(C3(=C(OC(=C1)C2(=CC=CC=C2))C(O)=CC=C3))","OC1=CC=CC2C(=O)C=C(OC=21)C1C=CC=CC=1","InChI=1S/C15H10O3/c16-12-8-4-7-11-13(17)9-14(18-15(11)12)10-5-2-1-3-6-10/h1-9,16H","XNUMOPPRKAGFPF-UHFFFAOYSA-N","?","23","spectrophotometric","a1/apparent","H+","acidic",7.82
"11365","O=C1(C(O)=COC(=C1)CO)","OC1=COC(CO)=CC1=O","InChI=1S/C6H6O4/c7-2-4-1-5(8)6(9)3-10-4/h1,3,7,9H,2H2","BEJNERDRQOWKJM-UHFFFAOYSA-N","?","22","mean from 2","a1/apparent","?","acidic",7.82
"12778","O=C1(C(C(=O)C)CCC1)","C=C(O)C1CCC=C1O","InChI=1S/C7H10O2/c1-5(8)6-3-2-4-7(6)9/h4,6,8-9H,1-3H2","NXTVFNDLWREMTF-UHFFFAOYSA-N","?","20","potentiometric","a/apparent","?","acidic",7.82
"14284","S(=O)(=O)(C1(=CC=C(O)C=C1))C","CS(=O)(=O)C1C=CC(O)=CC=1","InChI=1S/C7H8O3S/c1-11(9,10)7-4-2-6(8)3-5-7/h2-5,8H,1H3","KECCFSZFXLAGJS-UHFFFAOYSA-N","?","25","potentiometric","a1/apparent","?","acidic",7.83
"10772","SCC[NH2+]CCC1(=CC=CC=C1)","SCCNCCC1C=CC=CC=1","InChI=1S/C10H15NS/c12-9-8-11-7-6-10-4-2-1-3-5-10/h1-5,11-12H,6-9H2","SWQCRWGJYVDLAO-UHFFFAOYSA-N","?","25","potentiometric","a1/apparent","SH","acidic",7.85
"16501","S(=O)(=O)(NC1(=CC=C(S(=O)(=O)N)C=C1))C2(=CC=C(N)C=C2)","NS(=O)(=O)C1C=CC(=CC=1)NS(=O)(=O)C1C=CC(N)=CC=1","InChI=1S/C12H13N3O4S2/c13-9-1-5-12(6-2-9)21(18,19)15-10-3-7-11(8-4-10)20(14,16)17/h1-8,15H,13H2,(H2,14,16,17)","GCQZFVAHUZIDRP-UHFFFAOYSA-N","?",,,"a/apparent","?","acidic",7.85
"11442","ClC1(=C(O)C(=CC(=C1)Cl)C)","CC1=CC(Cl)=CC(Cl)=C1O","InChI=1S/C7H6Cl2O/c1-4-2-5(8)3-6(9)7(4)10/h2-3,10H,1H3","WJQZZLQMLJPKQH-UHFFFAOYSA-N","?","25","mean from 2","apparent","?","acidic",7.85
"13265","S=C1(SSC(=C1)C2(=CC=C(O)C=C2))","OC1C=CC(=CC=1)C1=CC(=S)SS1","InChI=1S/C9H6OS3/c10-7-3-1-6(2-4-7)8-5-9(11)13-12-8/h1-5,10H","IWBBKLMHAILHAR-UHFFFAOYSA-N","?",,,"a1/apparent","?","acidic",7.86
"15132","O=C(N(O)C1(=CC=CC=C1))C2(=CC=CC=C2)","ON(C(=O)C1C=CC=CC=1)C1C=CC=CC=1","InChI=1S/C13H11NO2/c15-13(11-7-3-1-4-8-11)14(16)12-9-5-2-6-10-12/h1-10,16H","YLYIXDZITBMCIW-UHFFFAOYSA-N","?","26","mean from 4","a1/apparent","?","acidic",7.87
"16204","S(=O)(=O)(NC1(=CN=CC=C1))C2(=CC=C(N)C=C2)","NC1C=CC(=CC=1)S(=O)(=O)NC1=CN=CC=C1","InChI=1S/C11H11N3O2S/c12-9-3-5-11(6-4-9)17(15,16)14-10-2-1-7-13-8-10/h1-8,14H,12H2","ZLXWFOCBHASDIJ-UHFFFAOYSA-N","?",,"potentiometric","a/apparent","?","acidic",7.89
"14695","O=C(C1(=CC=C(O)C=C1))C[NH2+]C(C)(C)C","CC(C)(C)N=CC(O)C1=CC=C(O)C=C1","InChI=1S/C12H17NO2/c1-12(2,3)13-8-11(15)9-4-6-10(14)7-5-9/h4-8,11,14-15H,1-3H3","FVKIUYJZLNQNMY-UHFFFAOYSA-N","?",,"potentiometric","b/apparent","?","acidic",7.9
"17735","ClC(=NO)C(=O)C","C=C(O)C(Cl)N=O","InChI=1S/C3H4ClNO2/c1-2(6)3(4)5-7/h3,6H,1H2","MTPQSWDYSOBCOU-UHFFFAOYSA-N","?","21","spectrophotometric","a1/apparent","?","acidic",7.9
"17736","ClCC(=O)C=NO","OC(CN=O)=CCl","InChI=1S/C3H4ClNO2/c4-1-3(6)2-5-7/h1,6H,2H2","AYDNOFINYMEWTF-UHFFFAOYSA-N","?","20","spectrophotometric","a1/apparent","?","acidic",7.9
"12551","O=C(N(C)C)C1(=NC=NC2(=C1NC=N2))","CN(C)C(=O)C1=NC=NC2N=CNC=21","InChI=1S/C8H9N5O/c1-13(2)8(14)6-5-7(11-3-9-5)12-4-10-6/h3-4H,1-2H3,(H,9,10,11,12)","USRXIIXNMSQFBB-UHFFFAOYSA-N","?",,"spectrophotometric","a2/apparent","?","acidic",7.9