"Molecule name","OriginalSmiles","Canonical_QSARr","InChI_Code_QSARr","InChI Key_QSARr","Salt_Solvent (Concatenate)","temp","method","type","group","basicOrAcidic","pKa"
"11154","SC=1(C=[N+](C2(=CC=CC=C2(C=1)))C)","C[N+]1=CC(S)=CC2=CC=CC=C12","InChI=1S/C10H9NS/c1-11-7-9(12)6-8-4-2-3-5-10(8)11/h2-7H,1H3/p+1","SKZKBWJZNNZNOK-UHFFFAOYSA-O","?","20","spectrophotometric","a/apparent","?","acidic",2.4
"16469","S1(C(C(C(=O)O)N2(C1C([NH+]=C2CC=CCC)C(=O)O))(C)C)","CCC=CCC1=NC(C2SC(C)(C)C(=C(O)O)N12)=C(O)O","InChI=1S/C14H20N2O4S/c1-4-5-6-7-8-15-9(12(17)18)11-16(8)10(13(19)20)14(2,3)21-11/h5-6,11,17-20H,4,7H2,1-3H3","KWOJTZKLOSVNHC-UHFFFAOYSA-N","?","25","potentiometric","a1/apparent","?","acidic",2.4
"10258","O[N+]1(=CC=C(O)C=C1)","OC1C=C[N+](O)=CC=1","InChI=1S/C5H5NO2/c7-5-1-3-6(8)4-2-5/h1-4,8H/p+1","NCDOCXYTOYFYHI-UHFFFAOYSA-O","?","24","mean from 2","a1/apparent","?","acidic",2.4
"11712","O=C(O)C([NH3+])CC1(C(=C)C1)","C=C1CC1CC(=N)C(O)O","InChI=1S/C7H11NO2/c1-4-2-5(4)3-6(8)7(9)10/h5,7-10H,1-3H2","XQDNTGKOVMTIOM-UHFFFAOYSA-N","?",,,"a1/apparent","?","acidic",2.4
"14639","O=C(NCC(=O)O)C([NH3+])CC=1([NH+]=CNC=1)","NC(CC1=CNC=N1)=C(O)N=CC(O)O","InChI=1S/C8H12N4O3/c9-6(1-5-2-10-4-12-5)8(15)11-3-7(13)14/h2-4,7,13-15H,1,9H2,(H,10,12)","MKIGTIQWEHZQAV-UHFFFAOYSA-N","?","25","potentiometric","a1/apparent","?","acidic",2.4
"13936","O2(C1(=[NH+]C(O)=CC(=C1CC2)C))","CC1=CC(O)=NC2OCCC=21","InChI=1S/C8H9NO2/c1-5-4-7(10)9-8-6(5)2-3-11-8/h4H,2-3H2,1H3,(H,9,10)","IVBKRUDIWDASEH-UHFFFAOYSA-N","?","20","mean from 2","a1/apparent","?","acidic",2.42
"17062","O=C1(OC2(C(C)C)(C[NH2+]C(C2(C1))C(=O)O))","CC(C)C12CN=C(C1C=C(O)O2)C(O)O","InChI=1S/C10H15NO4/c1-5(2)10-4-11-8(9(13)14)6(10)3-7(12)15-10/h3,5-6,9,12-14H,4H2,1-2H3","CQOFBKAAFRTJQM-UHFFFAOYSA-N","?",,"mean from 2","a1/apparent","?","acidic",2.45
"14196","FC(C1(=CC=CC=C1))C(=O)O","OC(O)=C(F)C1C=CC=CC=1","InChI=1S/C8H7FO2/c9-7(8(10)11)6-4-2-1-3-5-6/h1-5,10-11H","HSKDSFBMZCSBNS-UHFFFAOYSA-N","?","20","mean from 2","a1/apparent","COOH","acidic",2.45
"17453","O=C(O)CC#N","N#CC=C(O)O","InChI=1S/C3H3NO2/c4-2-1-3(5)6/h1,5-6H","RFFFBCWBINVJFF-UHFFFAOYSA-N","?","26","mean from 4","a1/apparent","COOH","acidic",2.46
"10302","[N+]1(=NN(C)C(=N1)N)(C)","CN1N=[N+](C)N=C1N","InChI=1S/C3H8N5/c1-7-3(4)5-8(2)6-7/h1-2H3,(H2,4,5,6)/q+1","HUDKEZNKBRZZMR-UHFFFAOYSA-N","?",,"potentiometric","b/apparent","?","acidic",2.5
"11356","O=C(NOCCC([NH3+])C(=O)O)N","NC(=O)NOCCC(=N)C(O)O","InChI=1S/C5H11N3O4/c6-3(4(9)10)1-2-12-8-5(7)11/h4,6,9-10H,1-2H2,(H3,7,8,11)","SNKOLBVNBIKETJ-UHFFFAOYSA-N","?","30","potentiometric","a1/apparent","?","acidic",2.5
"13074","O=C(O)C1([NH2+]CCCC1)","OC(O)C1CCCCN=1","InChI=1S/C6H11NO2/c8-6(9)5-3-1-2-4-7-5/h6,8-9H,1-4H2","GCXSXZOWOFVXOR-UHFFFAOYSA-N","?","25","potentiometric","a1/apparent","?","acidic",2.5
"10782","S1(=O)(CN(C(=O)C)C(C1)C(=O)O)","C=C(O)N1CS(=O)CC1=C(O)O","InChI=1S/C6H9NO4S/c1-4(8)7-3-12(11)2-5(7)6(9)10/h8-10H,1-3H2","RMHVJCKPYREUFT-UHFFFAOYSA-N","?","20","potentiometric","a/apparent","?","acidic",2.5
"15063","O=[N+]([O-])C2(=C(O)C=1(NN=CC=1C(=C2)[N+](=O)[O-]))","[O-][N+](=O)C1C=C(C2C=NNC=2C=1O)[N+]([O-])=O","InChI=1S/C7H4N4O5/c12-7-5(11(15)16)1-4(10(13)14)3-2-8-9-6(3)7/h1-2,12H,(H,8,9)","PIJCDFRRVBDTOD-UHFFFAOYSA-N","?","25","potentiometric","a/apparent","?","acidic",2.5
"17768","P1(=O)(O)(CCCC1)","OP1(=O)CCCC1","InChI=1S/C4H9O2P/c5-7(6)3-1-2-4-7/h1-4H2,(H,5,6)","CSSLZLQDGHKFLE-UHFFFAOYSA-N","?","25","potentiometric","a/apparent","?","acidic",2.51
"11837","O=C(O)C#CCC(C)(C)C","CC(C)(C)CC#CC(O)=O","InChI=1S/C8H12O2/c1-8(2,3)6-4-5-7(9)10/h6H2,1-3H3,(H,9,10)","JNUHCWCASOFEJM-UHFFFAOYSA-N","?","25",,"a/apparent","?","acidic",2.54
"14868","OC1(=C(C=C(C(O)=C(C#N)C#N)C=C1C)C)","CC1C=C(C=C(C)C=1O)C(O)=C(C#N)C#N","InChI=1S/C12H10N2O2/c1-7-3-9(4-8(2)11(7)15)12(16)10(5-13)6-14/h3-4,15-16H,1-2H3","BWDUZGXJMYIUCP-UHFFFAOYSA-N","?",,,"a/thermodynamic","?","acidic",2.55
"17341","FC(C(=O)O)=C","C=C(F)C(O)=O","InChI=1S/C3H3FO2/c1-2(4)3(5)6/h1H2,(H,5,6)","TYCFGHUTYSLISP-UHFFFAOYSA-N","?","25","mean from 2","a/thermodynamic","?","acidic",2.55
"16759","O=C1(N(C(N)=[NH+]C1CC(=O)O)CCCC([NH3+])C(=O)O)","NC1=NC(CC(O)=O)=C(O)N1CCCC(=N)C(O)O","InChI=1S/C10H16N4O5/c11-5(9(18)19)2-1-3-14-8(17)6(4-7(15)16)13-10(14)12/h9,11,17-19H,1-4H2,(H2,12,13)(H,15,16)","ZJAKRXPUSBULEY-UHFFFAOYSA-N","?, ?",,"potentiometric","a1/apparent","?, ?","acidic",2.56
"17500","FCC(=O)O","OC(O)=CF","InChI=1S/C2H3FO2/c3-1-2(4)5/h1,4-5H","RCQJUKQEIMDQQU-UHFFFAOYSA-N","?","15","conductometric","a/thermodynamic","?","acidic",2.56
"13082","O([N+]1(=CC=C(O)C=C1))C","CO[N+]1C=CC(O)=CC=1","InChI=1S/C6H7NO2/c1-9-7-4-2-6(8)3-5-7/h2-5H,1H3/p+1","ZZMBOQHEQKZJHQ-UHFFFAOYSA-O","?",,"potentiometric","a/apparent","?","acidic",2.57
"11349","N#CC(C#N)=C(N)C(C#N)C#N","N=C(C(C#N)C#N)C(C#N)C#N","InChI=1S/C7H3N5/c8-1-5(2-9)7(12)6(3-10)4-11/h5-6,12H","KEUDISIOUZCXLB-UHFFFAOYSA-N","?","25",,"a/apparent","?","acidic",2.58
"14203","ClC1(=C(C(=CC=C1)C)C(=O)O)","CC1=CC=CC(Cl)=C1C(O)=O","InChI=1S/C8H7ClO2/c1-5-3-2-4-6(9)7(5)8(10)11/h2-4H,1H3,(H,10,11)","CEFMMQYDPGCYMG-UHFFFAOYSA-N","?","20","mean from 2","a1/apparent","COOH","acidic",2.59
"11449","SC(=O)C1(=CC=C(C)C=C1)","CC1=CC=C(C=C1)C(=O)S","InChI=1S/C8H8OS/c1-6-2-4-7(5-3-6)8(9)10/h2-5H,1H3,(H,9,10)","PJHWTWHVCOZCPU-UHFFFAOYSA-N","?","22","spectrophotometric","a1/apparent","COSH","acidic",2.59
"17605","O=C(O)C#CCC","CCC#CC(O)=O","InChI=1S/C5H6O2/c1-2-3-4-5(6)7/h2H2,1H3,(H,6,7)","MINRDQDGBLQBGD-UHFFFAOYSA-N","?","25","potentiometric","a/apparent","?","acidic",2.6
"11301","[Br]C(=C(C#N)C#N)C(C#N)C#N","N#CC(C#N)C(Br)=C(C#N)C#N","InChI=1S/C7HBrN4/c8-7(5(1-9)2-10)6(3-11)4-12/h5H","IEOFLDOMOKFQTN-UHFFFAOYSA-N","?",,,"a/apparent","?","acidic",2.6
"12979","O[N+]1(=C(NC)C=CC=C1)","CNC1C=CC=C[N+]=1O","InChI=1S/C6H8N2O/c1-7-6-4-2-3-5-8(6)9/h2-5,9H,1H3/p+1","BIABGLGSACFDEW-UHFFFAOYSA-O","?",,"potentiometric","a/apparent","?","acidic",2.61
"14636","O=C(O)C(NC(=O)C[NH3+])CC=1([NH+]=CNC=1)","N=CC(O)NC(CC1=CNC=N1)=C(O)O","InChI=1S/C8H12N4O3/c9-2-7(13)12-6(8(14)15)1-5-3-10-4-11-5/h2-4,7,9,12-15H,1H2,(H,10,11)","VCPPROGDWXHQPS-UHFFFAOYSA-N","?","25","potentiometric","a1/apparent","CO2-H","acidic",2.61
"15230","S1(C(C(C(=O)O)N3(C1C(NC(=O)CC2(=CC=C(O)C=C2))C3=O))(C)C)","CC1(C)SC2C(=NC(O)=CC3C=CC(O)=CC=3)C(O)N2C1=C(O)O","InChI=1S/C16H18N2O5S/c1-16(2)12(15(22)23)18-13(21)11(14(18)24-16)17-10(20)7-8-3-5-9(19)6-4-8/h3-7,13-14,19-23H,1-2H3","FTZJBQTWFQFNOU-UHFFFAOYSA-N","?","23","potentiometric","a/apparent","?","acidic",2.62
"17897","N1(=NNC(=N1)C[NH3+])","NCC1NN=NN=1","InChI=1S/C2H5N5/c3-1-2-4-6-7-5-2/h1,3H2,(H,4,5,6,7)","ZHCLIFKUVIFYBY-UHFFFAOYSA-N","?","25","potentiometric","a1/apparent","?","acidic",2.62
"12062","O=C(O)C12(OC1CC[NH2+]C2)","OC(=O)C12CNCCC1O2","InChI=1S/C6H9NO3/c8-5(9)6-3-7-2-1-4(6)10-6/h4,7H,1-3H2,(H,8,9)","YDQZPAOBSMQNLN-UHFFFAOYSA-N","?","24",,"a1/apparent","COOH","acidic",2.63
"16230","O=C(O)C(NC(=O)CC[NH3+])CC=1(N(C=[NH+]C=1)C)","CN1C=NC=C1CC(/N=C(/O)\CCN)=C(O)O","InChI=1S/C10H16N4O3/c1-14-6-12-5-7(14)4-8(10(16)17)13-9(15)2-3-11/h5-6,16-17H,2-4,11H2,1H3,(H,13,15)","MAPCBGPQHARUJY-UHFFFAOYSA-N","?","22","potentiometric","a1/apparent","?","acidic",2.64
"13880","OC1(=[NH+]C=CC=2(C1=NC=CC=2))","OC1=NC=CC2C=CC=NC=21","InChI=1S/C8H6N2O/c11-8-7-6(3-5-10-8)2-1-4-9-7/h1-5H,(H,10,11)","VTUQISVBYRDYAW-UHFFFAOYSA-N","?","20","potentiometric","a1/apparent","?","acidic",2.64
"12576","O=C(O)C#CC(C)(C)C","CC(C)(C)C#CC(O)=O","InChI=1S/C7H10O2/c1-7(2,3)5-4-6(8)9/h1-3H3,(H,8,9)","NAQCQFVKNLZQHE-UHFFFAOYSA-N","?","25","potentiometric","a/apparent","?","acidic",2.66
"11711","O=C(O)C1([NH3+])(CCCCC1)","NC1(CCCCC1)C(O)=O","InChI=1S/C7H13NO2/c8-7(6(9)10)4-2-1-3-5-7/h1-5,8H2,(H,9,10)","WOXWUZCRWJWTRT-UHFFFAOYSA-N","?","25",,"a/apparent","?","acidic",2.66
"10177","O[N+]1(=C(N)C=CC=C1)","NC1C=CC=C[N+]=1O","InChI=1S/C5H6N2O/c6-5-3-1-2-4-7(5)8/h1-4,6,8H/p+1","KTPMVZCGIJJWCD-UHFFFAOYSA-O","?",,"potentiometric","a/apparent","?","acidic",2.67
"14436","S1(C([N+](=O)[O-])=CC=C1C(=O)O)","[O-][N+](=O)C1=CC=C(S1)C(O)=O","InChI=1S/C5H3NO4S/c7-5(8)3-1-2-4(11-3)6(9)10/h1-2H,(H,7,8)","UNEPVPOHGXLUIR-UHFFFAOYSA-N","?","25","mean from 2","a1/apparent","COOH","acidic",2.68
"14434","S1(C(=C([N+](=O)[O-])C=C1)C(=O)O)","[O-][N+](=O)C1C=CSC=1C(O)=O","InChI=1S/C5H3NO4S/c7-5(8)4-3(6(9)10)1-2-11-4/h1-2H,(H,7,8)","LTFGKKLLQUAPGE-UHFFFAOYSA-N","?","25",,"a1/apparent","COOH","acidic",2.68
"13613","O=[N+]([O-])C1(=C(C(=O)O)C=CC(=C1)C)","CC1=CC(=C(C=C1)C(O)=O)[N+]([O-])=O","InChI=1S/C8H7NO4/c1-5-2-3-6(8(10)11)7(4-5)9(12)13/h2-4H,1H3,(H,10,11)","KZLLSSGOPIGKDO-UHFFFAOYSA-N","?","20","potentiometric","a/thermodynamic","?","acidic",2.68
"12714","O=C(O)CONC(=[NH2+])N","NC(=N)NOC=C(O)O","InChI=1S/C3H7N3O3/c4-3(5)6-9-1-2(7)8/h1,7-8H,(H4,4,5,6)","SHIFXMFWMWEXOT-UHFFFAOYSA-N","?","23","potentiometric","a1/apparent","?","acidic",2.69
"12850","ClC1(=COC(=C1)C(=O)O)","OC(=O)C1=CC(Cl)=CO1","InChI=1S/C5H3ClO3/c6-3-1-4(5(7)8)9-2-3/h1-2H,(H,7,8)","BPYVAQCDJRTUHR-UHFFFAOYSA-N","?","20",,"a/apparent","?","acidic",2.69
"14774","O=C2(OCC13(C5(C(C(=O)CC1C(OC3(C2))(C)C)(C4(OC4C(=O)O)(CC(C5)(CC6(COCC6))C))C)))","CC1(C)OC2C=C(O)OCC32C1C=C(O)C1(C)C3CC(C)(CC2CCOC2)CC21OC2=C(O)O","InChI=1S/C26H36O8/c1-22(2)15-7-17(27)24(4)16(25(15)13-32-19(28)8-18(25)33-22)10-23(3,9-14-5-6-31-11-14)12-26(24)20(34-26)21(29)30/h7-8,14-16,18,27-30H,5-6,9-13H2,1-4H3","HMQQGBNWHAMPHS-UHFFFAOYSA-N","?","20","potentiometric","a/apparent","?","acidic",2.7
"12931","O=C(O)C1(=NC=CN=C1)","OC(=O)C1C=NC=CN=1","InChI=1S/C5H4N2O2/c8-5(9)4-3-6-1-2-7-4/h1-3H,(H,8,9)","NIPZZXUFJPQHNH-UHFFFAOYSA-N","?",,"potentiometric","a2/apparent","?","acidic",2.7
"14209","IC1(=C(C(=CC=C1)C)C(=O)O)","CC1=CC=CC(I)=C1C(O)=O","InChI=1S/C8H7IO2/c1-5-3-2-4-6(9)7(5)8(10)11/h2-4H,1H3,(H,10,11)","LLVYMVJLXNNRND-UHFFFAOYSA-N","?","20","potentiometric","a/thermodynamic","?","acidic",2.7
"14947","N1(=NNC(=N1)C3(=C(C2(=NN=NN2))C=CC=C3))","C1=CC=CC(C2NN=NN=2)=C1C1NN=NN=1","InChI=1S/C8H6N8/c1-2-4-6(8-11-15-16-12-8)5(3-1)7-9-13-14-10-7/h1-4H,(H,9,10,13,14)(H,11,12,15,16)","OQTRDGZKQAZJNM-UHFFFAOYSA-N","?","20","spectrophotometric","a1/apparent","NH","acidic",2.71
"11369","S1(=O)(=O)(CC(=O)CC(C1)=O)","OC1CS(=O)(=O)CC(=O)C=1","InChI=1S/C5H6O4S/c6-4-1-5(7)3-10(8,9)2-4/h1,6H,2-3H2","JRAYFYLUBKSLPN-UHFFFAOYSA-N","?",,"potentiometric","a/apparent","?","acidic",2.72
"10026","P1(=O)(O)(CCCCC1)","OP1(=O)CCCCC1","InChI=1S/C5H11O2P/c6-8(7)4-2-1-3-5-8/h1-5H2,(H,6,7)","NNCQZOVCNZHBKO-UHFFFAOYSA-N","?","25","potentiometric","a/apparent","?","acidic",2.73
"13629","FC1(=C(C(=O)O)C=C([N+](=O)[O-])C=C1)","[O-][N+](=O)C1=CC(C(O)=O)=C(F)C=C1","InChI=1S/C7H4FNO4/c8-6-2-1-4(9(12)13)3-5(6)7(10)11/h1-3H,(H,10,11)","ICXSHFWYCHJILC-UHFFFAOYSA-N","?","25","conductometric","apparent","?","acidic",2.73
"15532","S3(C2(=C(C=C(CN1(C=[NH+]C=C1))C=C2)C=C3C(=O)O))","OC(=O)C1=CC2=CC(CN3C=NC=C3)=CC=C2S1","InChI=1S/C13H10N2O2S/c16-13(17)12-6-10-5-9(1-2-11(10)18-12)7-15-4-3-14-8-15/h1-6,8H,7H2,(H,16,17)","GEEZPHMQJXJCBB-UHFFFAOYSA-N","?","25",,"a1/apparent","COOH","acidic",2.74
"14181","ClC1(=C(C(=O)O)C=CC(=C1)Cl)","OC(=O)C1C=CC(Cl)=CC=1Cl","InChI=1S/C7H4Cl2O2/c8-4-1-2-5(7(10)11)6(9)3-4/h1-3H,(H,10,11)","ATCRIUVQKHMXSH-UHFFFAOYSA-N","?","25","mean from 4","a1/thermodynamic","COOH","acidic",2.74
"17617","S(=O)(O)CC(C)C","CC(C)CS(O)=O","InChI=1S/C4H10O2S/c1-4(2)3-7(5)6/h4H,3H2,1-2H3,(H,5,6)","WLPRUDLQOPCFNL-UHFFFAOYSA-N","?","20","conductometric","a1/apparent","SOOH","acidic",2.75
"16764","O=C(O)C(NC(=O)C([NH3+])CC(C)C)CC=1([NH+]=CNC=1)","CC(C)CC(=N)C(O)NC(CC1=CNC=N1)=C(O)O","InChI=1S/C12H20N4O3/c1-7(2)3-9(13)11(17)16-10(12(18)19)4-8-5-14-6-15-8/h5-7,11,13,16-19H,3-4H2,1-2H3,(H,14,15)","MHVCFZCSMMLJCG-UHFFFAOYSA-N","?","25","potentiometric","a3/apparent","COOH","acidic",2.76
"16897","S1(C(C(C(=O)O)N3(C1C(NC(=O)CC2(=CC=CC=C2))C3=O))(C)C)","CC1(C)SC2C(=NC(O)=CC3C=CC=CC=3)C(O)N2C1=C(O)O","InChI=1S/C16H18N2O4S/c1-16(2)12(15(21)22)18-13(20)11(14(18)23-16)17-10(19)8-9-6-4-3-5-7-9/h3-8,13-14,19-22H,1-2H3","LTAJHFZLYAAGBA-UHFFFAOYSA-N","?","25","potentiometric","a/apparent","?","acidic",2.76
"15264","OC2(=[NH+]C=1(C(=CC=CC=1)C(=C2)C(O)C3([NH+]4(CC(O)(C=C)C(C3)CC4))))","C=CC1(O)CN2CCC1CC2C(O)C1=CC(O)=NC2=CC=CC=C21","InChI=1S/C19H22N2O3/c1-2-19(24)11-21-8-7-12(19)9-16(21)18(23)14-10-17(22)20-15-6-4-3-5-13(14)15/h2-6,10,12,16,18,23-24H,1,7-9,11H2,(H,20,22)","CKTWUPKTWOKVDJ-UHFFFAOYSA-N","?",,,"a1/apparent","?","acidic",2.76
"14858","O=C(O)C(NC(=O)CC[NH3+])CC=1([NH+]=CNC=1)","NCC/C(/O)=N\C(CC1=CNC=N1)=C(O)O","InChI=1S/C9H14N4O3/c10-2-1-8(14)13-7(9(15)16)3-6-4-11-5-12-6/h4-5,15-16H,1-3,10H2,(H,11,12)(H,13,14)","WTLSFJRENIJTFH-UHFFFAOYSA-N","?, ?, ?","25",,"a3/apparent","?, ?, COOH","acidic",2.763333333333333
"14898","S(=O)(=O)(N(CC)CC)C1(=C(SC=C1)C(=O)O)","CCN(CC)S(=O)(=O)C1C=CSC=1C(O)=O","InChI=1S/C9H13NO4S2/c1-3-10(4-2)16(13,14)7-5-6-15-8(7)9(11)12/h5-6H,3-4H2,1-2H3,(H,11,12)","YGXZNMUFTJSNCI-UHFFFAOYSA-N","?","25",,"a1/apparent","COOH","acidic",2.77
"10540","IC(C(=O)O)=CC1(=CC=CC=C1)","OC(=O)C(I)=CC1C=CC=CC=1","InChI=1S/C9H7IO2/c10-8(9(11)12)6-7-4-2-1-3-5-7/h1-6H,(H,11,12)","DHXBCVZQFYNLRC-UHFFFAOYSA-N","?, ?","25",,"apparent","?, ?","acidic",2.77
"17752","O=C(O)C(O)C[NH3+]","NCC(O)=C(O)O","InChI=1S/C3H7NO3/c4-1-2(5)3(6)7/h5-7H,1,4H2","WQQTVMDBIWUNEJ-UHFFFAOYSA-N","?","25","potentiometric","apparent","CO2H","acidic",2.78
"14192","SC(=O)C1(=CC=C(OC)C=C1)","COC1C=CC(=CC=1)C(=O)S","InChI=1S/C8H8O2S/c1-10-7-4-2-6(3-5-7)8(9)11/h2-5H,1H3,(H,9,11)","YGAPOICUMNPIPF-UHFFFAOYSA-N","?","22","spectrophotometric","a1/apparent","COSH","acidic",2.79
"16971","O=C(O)CC(C1(=[NH+]C=CN1))C2(=[NH+]C=CN2)","OC(O)=CC(C1NC=CN=1)C1NC=CN=1","InChI=1S/C9H10N4O2/c14-7(15)5-6(8-10-1-2-11-8)9-12-3-4-13-9/h1-6,14-15H,(H,10,11)(H,12,13)","AERKCKJUJKBKSI-UHFFFAOYSA-N","?","24.9","potentiometric","a1/apparent","COOH","acidic",2.79
"12935","O=C(O)C1(=CN=NC=C1)","OC(=O)C1C=CN=NC=1","InChI=1S/C5H4N2O2/c8-5(9)4-1-2-6-7-3-4/h1-3H,(H,8,9)","JUSIWJONLKBPDU-UHFFFAOYSA-N","?",,,"a/apparent","?","acidic",2.8
"14549","O=C(O)C1(=[N+]([O-])C(C)(C)CC1)","CC1(C)CCC(C(O)=O)=[N+]1[O-]","InChI=1S/C7H11NO3/c1-7(2)4-3-5(6(9)10)8(7)11/h3-4H2,1-2H3,(H,9,10)","NMQZCCLAVDITNS-UHFFFAOYSA-N","?",,,"a/apparent","?","acidic",2.8
"15418","O=[N+]([O-])C=1(C=2(C(C(O)=C(C=1)C[NH+](CC)CC)=CC=CC=2))","CCN(CC1C=C(C2=CC=CC=C2C=1O)[N+]([O-])=O)CC","InChI=1S/C15H18N2O3/c1-3-16(4-2)10-11-9-14(17(19)20)12-7-5-6-8-13(12)15(11)18/h5-9,18H,3-4,10H2,1-2H3","RVMDQSIRTSDBRH-UHFFFAOYSA-N","?","25","spectrophotometric","a1/apparent","OH","acidic",2.82
"10360","[Br]C(C(=O)O)C(C)C","CC(C)C(Br)=C(O)O","InChI=1S/C5H9BrO2/c1-3(2)4(6)5(7)8/h3,7-8H,1-2H3","OZPGSAOMUMGMFM-UHFFFAOYSA-N","?","20",,"a1/apparent","?","acidic",2.82
"11494","O=C(O)CC1(=NN=NN1C)","CN1N=NN=C1C=C(O)O","InChI=1S/C4H6N4O2/c1-8-3(2-4(9)10)5-6-7-8/h2,9-10H,1H3","OKTGLJQHAXMUKO-UHFFFAOYSA-N","?","25","potentiometric","a1/apparent","COOH","acidic",2.83
"14433","S1(C(C(=O)O)=CC(=C1)[N+](=O)[O-])","[O-][N+](=O)C1C=C(SC=1)C(O)=O","InChI=1S/C5H3NO4S/c7-5(8)4-1-3(2-11-4)6(9)10/h1-2H,(H,7,8)","SZHKHACZQDMGGI-UHFFFAOYSA-N","?","25","mean from 2","a/apparent","?","acidic",2.83
"16466","S1(C(C(C(=O)O)N2(C1C(NC(=O)CC=CCC)C2=O))(C)C)","CCC=CC=C(O)N=C1C2SC(C)(C)C(=C(O)O)N2C1O","InChI=1S/C14H20N2O4S/c1-4-5-6-7-8(17)15-9-11(18)16-10(13(19)20)14(2,3)21-12(9)16/h5-7,11-12,17-20H,4H2,1-3H3","AEHZWJCERIRXTN-UHFFFAOYSA-N","?","25","potentiometric","a/apparent","?","acidic",2.84
"17502","[Br]CC(=O)O","OC(O)=CBr","InChI=1S/C2H3BrO2/c3-1-2(4)5/h1,4-5H","RNOAQVPUQVPEHL-UHFFFAOYSA-N","?","15","mean from 2","a1/apparent","?","acidic",2.84
"15617","S(=O)(=O)(NC1(=CC=C(S(=O)(=O)C)C=C1))C(F)(F)F","CS(=O)(=O)C1C=CC(=CC=1)NS(=O)(=O)C(F)(F)F","InChI=1S/C8H8F3NO4S2/c1-17(13,14)7-4-2-6(3-5-7)12-18(15,16)8(9,10)11/h2-5,12H,1H3","GHTSSHVAUOEDTA-UHFFFAOYSA-N","?","25","potentiometric","a1/apparent","?","acidic",2.84
"16436","O=C(OC1(OC(C(=O)O)C(O)C(C1O)O))C2(=CC=CC=C2)","OC(O)=C1OC(OC(=O)C2C=CC=CC=2)C(O)C(O)C1O","InChI=1S/C13H14O8/c14-7-8(15)10(11(17)18)20-13(9(7)16)21-12(19)6-4-2-1-3-5-6/h1-5,7-9,13-18H","JXNKKACNRQXLKZ-UHFFFAOYSA-N","?",,,"1/apparent","?","acidic",2.85
"17499","ClCC(=O)O","OC(O)=CCl","InChI=1S/C2H3ClO2/c3-1-2(4)5/h1,4-5H","XVZRSEWIZDQMQH-UHFFFAOYSA-N","?","24","mean from 12","a1/apparent","?","acidic",2.85
"10492","S=C(S)NCCOC","COCCNC(S)=S","InChI=1S/C4H9NOS2/c1-6-3-2-5-4(7)8/h2-3H2,1H3,(H2,5,7,8)","GCLYKPRQCGUZGH-UHFFFAOYSA-N","?","25",,"a1/apparent","S-H","acidic",2.85
"14288","O=C(O)CC1(=NN=NN1CC)","CCN1N=NN=C1C=C(O)O","InChI=1S/C5H8N4O2/c1-2-9-4(3-5(10)11)6-7-8-9/h3,10-11H,2H2,1H3","AMVIAGPVPLNRSK-UHFFFAOYSA-N","?","25","potentiometric","a1/apparent","COOH","acidic",2.85
"10877","O=C(O)C1(=[N+]([O-])C(C)(C)C(C1)C)","CC1(C)C(C)CC(C(O)=O)=[N+]1[O-]","InChI=1S/C8H13NO3/c1-5-4-6(7(10)11)9(12)8(5,2)3/h5H,4H2,1-3H3,(H,10,11)","CAWVOTVSPXIQIS-UHFFFAOYSA-N","?",,"potentiometric","a/apparent","?","acidic",2.85
"13872","OC=2(C1(=NC=CC=C1[NH+]=CC=2))","OC1C=CN=C2C=CC=NC2=1","InChI=1S/C8H6N2O/c11-7-3-5-9-6-2-1-4-10-8(6)7/h1-5H,(H,9,11)","NSPLFNGUPLZYHV-UHFFFAOYSA-N","?","20","potentiometric","a1/apparent","?","acidic",2.85
"15435","O=[N+]([O-])C2(=CC(=C(C(=O)C1(=CC=CC=C1))C=C2)C(=O)O)","[O-][N+](=O)C1=CC(C(O)=O)=C(C=C1)C(=O)C1C=CC=CC=1","InChI=1S/C14H9NO5/c16-13(9-4-2-1-3-5-9)11-7-6-10(15(19)20)8-12(11)14(17)18/h1-8H,(H,17,18)","FWPIEGIWZHMCKQ-UHFFFAOYSA-N","?","20","potentiometric","a/thermodynamic","?","acidic",2.86
"14384","O=[N+]([O-])N(C1(=NN=NN1))CC","CCN(C1NN=NN=1)[N+]([O-])=O","InChI=1S/C3H6N6O2/c1-2-8(9(10)11)3-4-6-7-5-3/h2H2,1H3,(H,4,5,6,7)","VJCWXVXVKHOZDN-UHFFFAOYSA-N","?","25","potentiometric","a/apparent","?","acidic",2.86
"11792","O=C(O)C1(=CC=[N+]([O-])C=C1)","[O-][N+]1=CC=C(C=C1)C(O)=O","InChI=1S/C6H5NO3/c8-6(9)5-1-3-7(10)4-2-5/h1-4H,(H,8,9)","QCWTWMJMLSKQCJ-UHFFFAOYSA-N","?",,"potentiometric","a2/apparent","?","acidic",2.86
"11927","S=C(OCC(=O)O)N(C)C","CN(C)C(=S)OC=C(O)O","InChI=1S/C5H9NO3S/c1-6(2)5(10)9-3-4(7)8/h3,7-8H,1-2H3","ZVJQRQVKTNTPLG-UHFFFAOYSA-N","?","25","potentiometric","a1/apparent","?","acidic",2.87
"11608","O=[N+]([O-])N(C1(=NN=NN1))C","CN(C1NN=NN=1)[N+]([O-])=O","InChI=1S/C2H4N6O2/c1-7(8(9)10)2-3-5-6-4-2/h1H3,(H,3,4,5,6)","JCNNKQNVXQSBID-UHFFFAOYSA-N","?","25","potentiometric","a/apparent","?","acidic",2.88
"17340","ClC(C(=O)O)C","CC(Cl)=C(O)O","InChI=1S/C3H5ClO2/c1-2(4)3(5)6/h5-6H,1H3","CIPZHAOJHQVCSV-UHFFFAOYSA-N","?","18","potentiometric","apparent","?","acidic",2.88
"12241","O=[N+]([O-])C1(=CC=C(OCC(=O)O)C=C1)","[O-][N+](=O)C1=CC=C(C=C1)OC=C(O)O","InChI=1S/C8H7NO5/c10-8(11)5-14-7-3-1-6(2-4-7)9(12)13/h1-5,10-11H","ORQTTZQLFBRCFU-UHFFFAOYSA-N","?","25",,"thermodynamic","?","acidic",2.89
"12367","O=C(O)C2(=C(C1(=NN=NN1))C=CC=C2)","OC(=O)C1C=CC=CC=1C1NN=NN=1","InChI=1S/C8H6N4O2/c13-8(14)6-4-2-1-3-5(6)7-9-11-12-10-7/h1-4H,(H,13,14)(H,9,10,11,12)","QRKJBXMXOAQYEC-UHFFFAOYSA-N","?","20","spectrophotometric","a1/apparent","?","acidic",2.9
"14188","[Br]C1(=C(C(=O)O)C=CC=C1C)","CC1=CC=CC(C(O)=O)=C1Br","InChI=1S/C8H7BrO2/c1-5-3-2-4-6(7(5)9)8(10)11/h2-4H,1H3,(H,10,11)","LSRTWJCYIWGKCQ-UHFFFAOYSA-N","?","20","potentiometric","a/thermodynamic","?","acidic",2.9
"13330","O=C(O)CC1([NH2+]NC2(=C1C=CC=C2))","OC(O)=CC1NNC2=CC=CC=C21","InChI=1S/C9H10N2O2/c12-9(13)5-8-6-3-1-2-4-7(6)10-11-8/h1-5,8,10-13H","MOIGYTCAXWGSNT-UHFFFAOYSA-N","?",,,"a1/apparent","?","acidic",2.9
"15791","O=C(O)C=1([NH+]=CN(C=1N)C2(OC(CO)C(C2O)O))","NC1=C(N=CN1C1OC(CO)C(O)C1O)C(O)=O","InChI=1S/C9H13N3O6/c10-7-4(9(16)17)11-2-12(7)8-6(15)5(14)3(1-13)18-8/h2-3,5-6,8,13-15H,1,10H2,(H,16,17)","GCEYZZWMVRITSE-UHFFFAOYSA-N","?","27","potentiometric","a1/apparent","COOH","acidic",2.9
"15271","O=C(O)C1(N(C(=O)CNC(=O)CNC(=O)C[NH3+])CCC1)","N=CC(O)NCC(O)=NC=C(O)N1CCCC1=C(O)O","InChI=1S/C11H18N4O5/c12-4-8(16)13-5-9(17)14-6-10(18)15-3-1-2-7(15)11(19)20/h4,6,8,12-13,16,18-20H,1-3,5H2,(H,14,17)","YRENNZDMOAYXIC-UHFFFAOYSA-N","?","25","potentiometric","a1/apparent","?","acidic",2.91
"13611","O=[N+]([O-])C1(=C(C(=O)O)C=CC=C1C)","CC1=CC=CC(C(O)=O)=C1[N+]([O-])=O","InChI=1S/C8H7NO4/c1-5-3-2-4-6(8(10)11)7(5)9(12)13/h2-4H,1H3,(H,10,11)","DGDAVTPQCQXLGU-UHFFFAOYSA-N","?","20","potentiometric","a/thermodynamic","?","acidic",2.91