"Molecule name","OriginalSmiles","Canonical_QSARr","InChI_Code_QSARr","InChI Key_QSARr","Salt_Solvent (Concatenate)","temp","method","type","group","basicOrAcidic","pKa"
"11652","S=CNC1(=CC(F)=CC=C1)","FC1C=C(C=CC=1)NC=S","InChI=1S/C7H6FNS/c8-6-2-1-3-7(4-6)9-5-10/h1-5H,(H,9,10)","QUMISUIQFVEZSD-UHFFFAOYSA-N","?","20","potentiometric","a1/apparent","?","acidic",10.89
"12447","OC=1(N(N=C(C=1C2(=CC=CC=C2))C)C)","CC1=NN(C)C(O)=C1C1C=CC=CC=1","InChI=1S/C11H12N2O/c1-8-10(11(14)13(2)12-8)9-6-4-3-5-7-9/h3-7,14H,1-2H3","ZMEDFYGZYDHCIA-UHFFFAOYSA-N","?",,"potentiometric","b/apparent","?","acidic",10.9
"16751","O(C1(=C(C(OC)=CC=C1)C2(=NC=3(C=NC=CC=3(N2)))))C","COC1C=CC=C(OC)C=1C1NC2C=CN=CC=2N=1","InChI=1S/C14H13N3O2/c1-18-11-4-3-5-12(19-2)13(11)14-16-9-6-7-15-8-10(9)17-14/h3-8H,1-2H3,(H,16,17)","SMTKZZCOIPWVML-UHFFFAOYSA-N","?","25","mean from 2","a2/apparent","?","acidic",10.9
"11441","OC1(=C(C=C(C)C=C1C)C)","CC1C=C(C)C=C(C)C=1O","InChI=1S/C9H12O/c1-6-4-7(2)9(10)8(3)5-6/h4-5,10H,1-3H3","BPRYUXCVCCNUFE-UHFFFAOYSA-N","?","23","mean from 5","a1/apparent","OH","acidic",10.9
"16329","N3(=C(NCC1(=CC=CC=C1))C2(=C(NN=C2)N=C3))","C(NC1=NC=NC2NN=CC1=2)C1C=CC=CC=1","InChI=1S/C12H11N5/c1-2-4-9(5-3-1)6-13-11-10-7-16-17-12(10)15-8-14-11/h1-5,7-8H,6H2,(H2,13,14,15,16,17)","NNSLOBNGHHXORI-UHFFFAOYSA-N","?","20","spectrophotometric","a2/apparent","?","acidic",10.93
"11968","[S-]C1(=NC=NC2(=C1NC=N2))","SC1=NC=NC2N=CNC=21","InChI=1S/C5H4N4S/c10-5-3-4(7-1-6-3)8-2-9-5/h1-2H,(H2,6,7,8,9,10)","GLVAUDGFNGKCSF-UHFFFAOYSA-N","?","20","mean from 3","a2/apparent","?","acidic",10.94
"12585","P(=O)(CC=O)(CC)CC","CCP(=O)(CC)C=CO","InChI=1S/C6H13O2P/c1-3-9(8,4-2)6-5-7/h5-7H,3-4H2,1-2H3","LWOSIQFDQYXTOG-UHFFFAOYSA-N","?","25","potentiometric","a1/apparent","?","acidic",10.95
"16131","S=C(NC1(=CC=C(F)C=C1))C2(=CC=C(C)C=C2)","CC1C=CC(=CC=1)C(=S)NC1C=CC(F)=CC=1","InChI=1S/C14H12FNS/c1-10-2-4-11(5-3-10)14(17)16-13-8-6-12(15)7-9-13/h2-9H,1H3,(H,16,17)","LBLOQRWEUNNPLH-UHFFFAOYSA-N","?",,"spectrophotometric","a1/apparent","?","acidic",10.97
"15753","[Br]C2(=CC(C(=S)NC1(=CC=C(OC)C=C1))=CC=C2)","COC1C=CC(=CC=1)NC(=S)C1C=C(Br)C=CC=1","InChI=1S/C14H12BrNOS/c1-17-13-7-5-12(6-8-13)16-14(18)10-3-2-4-11(15)9-10/h2-9H,1H3,(H,16,18)","UPBXVJGOYZNEGZ-UHFFFAOYSA-N","?",,"spectrophotometric","a1/apparent","?","acidic",10.99
"17431","SC(CN)(C)C","CC(C)(S)CN","InChI=1S/C4H11NS/c1-4(2,6)3-5/h6H,3,5H2,1-2H3","MBPAUMHSIFBANF-UHFFFAOYSA-N","?","22","potentiometric","a2/apparent","?","acidic",11.0
"17319","S=C1(OCCN1)","S=C1NCCO1","InChI=1S/C3H5NOS/c6-3-4-1-2-5-3/h1-2H2,(H,4,6)","UMURLIQHQSKULR-UHFFFAOYSA-N","?","20","potentiometric","a/apparent","?","acidic",11.05
"13652","O(C1(=C(C=CC=C1)C=CC=NO))C","COC1C=CC=CC=1C=CCN=O","InChI=1S/C10H11NO2/c1-13-10-7-3-2-5-9(10)6-4-8-11-12/h2-7H,8H2,1H3","XXDDOXMISQLNBB-UHFFFAOYSA-N","?, ?","25",,"apparent","?, ?","acidic",11.07
"10845","OC1(=C(C=CC=C1C)CN(C)C)","CC1=CC=CC(CN(C)C)=C1O","InChI=1S/C10H15NO/c1-8-5-4-6-9(10(8)12)7-11(2)3/h4-6,12H,7H2,1-3H3","ADODSZXYDVUXTG-UHFFFAOYSA-N","?","25","potentiometric","a1/apparent","?","acidic",11.1
"13715","S=C(NC1(=CC([N+](=O)[O-])=CC=C1))N","NC(=S)NC1=CC(=CC=C1)[N+]([O-])=O","InChI=1S/C7H7N3O2S/c8-7(13)9-5-2-1-3-6(4-5)10(11)12/h1-4H,(H3,8,9,13)","HQEMUQNZGCZHHN-UHFFFAOYSA-N","?","25","spectrophotometric","a1/apparent","?","acidic",11.1
"13489","O=C(C1(=CC=CC=C1))C(C(=O)C)C","CC(=O)C(C)=C(O)C1C=CC=CC=1","InChI=1S/C11H12O2/c1-8(9(2)12)11(13)10-6-4-3-5-7-10/h3-7,13H,1-2H3","GDWVSAPMTMAVSE-UHFFFAOYSA-N","?","20",,"a/apparent","?","acidic",11.13
"16061","[Br]CC(OC1(=CC=CC=C1))(O)C2(=CC=CC=C2)","OC(CBr)(OC1C=CC=CC=1)C1C=CC=CC=1","InChI=1S/C14H13BrO2/c15-11-14(16,12-7-3-1-4-8-12)17-13-9-5-2-6-10-13/h1-10,16H,11H2","XVZSYZIVAUKZPY-UHFFFAOYSA-N","?","25",,"a1/apparent","?","acidic",11.18
"15420","O=C2(C(C(O)CC1(CC(=O)NC(C1)=O))CC(C)CC2C)","CC1CC(C)CC(C(O)CC2CC(O)=NC(O)=C2)C=1O","InChI=1S/C15H23NO4/c1-8-3-9(2)15(20)11(4-8)12(17)5-10-6-13(18)16-14(19)7-10/h6,8,10-12,17-18,20H,3-5,7H2,1-2H3,(H,16,19)","QSLGPYVKRPLQAB-UHFFFAOYSA-N","?",,"potentiometric","a/apparent","?","acidic",11.2
"12538","N2(=C(NCCCC)C1(=C(NN=C1)N=C2))","CCCCNC1=NC=NC2NN=CC1=2","InChI=1S/C9H13N5/c1-2-3-4-10-8-7-5-13-14-9(7)12-6-11-8/h5-6H,2-4H2,1H3,(H2,10,11,12,13,14)","JWEGHNQHVNZGHA-UHFFFAOYSA-N","?","20","spectrophotometric","a2/apparent","?","acidic",11.21
"15656","[Br]CC(OC1(=CC=C(C)C=C1))(O)C2(=CC=CC=C2)","CC1C=CC(=CC=1)OC(O)(CBr)C1C=CC=CC=1","InChI=1S/C15H15BrO2/c1-12-7-9-14(10-8-12)18-15(17,11-16)13-5-3-2-4-6-13/h2-10,17H,11H2,1H3","NAIJPRDWYPYCAX-UHFFFAOYSA-N","?","25",,"a1/apparent","?","acidic",11.23
"14814","O=C(C2(=CC=C(C1(=CC=CC=C1))C=C2))C[N+]=5(C=4(C(=C3(C(C=CC=C3)=CC=4))C=CC=5))","OC(=C[N+]1C=CC=C2C3C=CC=CC=3C=CC=12)C1C=CC(=CC=1)C1C=CC=CC=1","InChI=1S/C27H19NO/c29-27(23-14-12-21(13-15-23)20-7-2-1-3-8-20)19-28-18-6-11-25-24-10-5-4-9-22(24)16-17-26(25)28/h1-19H/p+1","KCUCOOACGYKNIR-UHFFFAOYSA-O","?","20","potentiometric","a1/apparent","?","acidic",11.25
"15752","ClC2(=CC=C(C(=S)NC1(=CC=C(OC)C=C1))C=C2)","COC1C=CC(=CC=1)NC(=S)C1C=CC(Cl)=CC=1","InChI=1S/C14H12ClNOS/c1-17-13-8-6-12(7-9-13)16-14(18)10-2-4-11(15)5-3-10/h2-9H,1H3,(H,16,18)","DWQBNXQHGHKHRK-UHFFFAOYSA-N","?",,"spectrophotometric","a1/apparent","?","acidic",11.26
"10886","O=C([O-])C(=NO)C1(=CC=CC=C1)","OC(=O)C(N=O)C1C=CC=CC=1","InChI=1S/C8H7NO3/c10-8(11)7(9-12)6-4-2-1-3-5-6/h1-5,7H,(H,10,11)","ZMUDJRQQHDUAIR-UHFFFAOYSA-N","?, ?","20","potentiometric","a2/apparent","?, ?","acidic",11.29
"17414","FCC(=O)NN","N/N=C(/O)\CF","InChI=1S/C2H5FN2O/c3-1-2(6)5-4/h1,4H2,(H,5,6)","HYXCKBUBQWDMFP-UHFFFAOYSA-N","?","25",,"a1/apparent","NH","acidic",11.3
"17119","ClC1(=C([N+](=O)[O-])C=C2(CC(=O)CCC2(=C1)))","[O-][N+](=O)C1C=C2CC(O)=CCC2=CC=1Cl","InChI=1S/C10H8ClNO3/c11-9-4-6-1-2-8(13)3-7(6)5-10(9)12(14)15/h2,4-5,13H,1,3H2","UROUIFHIHBRQOT-UHFFFAOYSA-N","?","25","spectrophotometric","a1/apparent","?","acidic",11.34
"16876","O=C(C1(=CC=CC=C1))C[N+]=4(C=3(C(=C2(C(C=CC=C2)=CC=3))C=CC=4))","OC(=C[N+]1C=CC=C2C3C=CC=CC=3C=CC=12)C1C=CC=CC=1","InChI=1S/C21H15NO/c23-21(17-8-2-1-3-9-17)15-22-14-6-11-19-18-10-5-4-7-16(18)12-13-20(19)22/h1-15H/p+1","MMDSJJHXUHXKMX-UHFFFAOYSA-O","?","20","potentiometric","a1/apparent","?","acidic",11.35
"16773","S(=O)(=O)(NC(C(=O)[O-])CC(=O)N)C1(=CC=C(C)C=C1)","CC1=CC=C(C=C1)S(=O)(=O)N=C(CC(N)=O)C(O)O","InChI=1S/C11H14N2O5S/c1-7-2-4-8(5-3-7)19(17,18)13-9(11(15)16)6-10(12)14/h2-5,11,15-16H,6H2,1H3,(H2,12,14)","DFESLMBTCUIJFG-UHFFFAOYSA-N","?","25","potentiometric","a1/apparent","SO2-NH-","acidic",11.4
"14701","OC1(=C(C=CC=C1)CN(C(C)C)C(C)C)","CC(C)N(CC1C=CC=CC=1O)C(C)C","InChI=1S/C13H21NO/c1-10(2)14(11(3)4)9-12-7-5-6-8-13(12)15/h5-8,10-11,15H,9H2,1-4H3","SCHYRKWCWJLCIY-UHFFFAOYSA-N","?","25","potentiometric","a1/apparent","?","acidic",11.4
"12184","S(=O)(=O)(NCC(=O)[O-])C1(=CC=CC=C1)","OC(O)C=NS(=O)(=O)C1C=CC=CC=1","InChI=1S/C8H9NO4S/c10-8(11)6-9-14(12,13)7-4-2-1-3-5-7/h1-6,8,10-11H","JFAGLQHNIDYMSY-UHFFFAOYSA-N","?","25","potentiometric","a1/apparent","SO2-NH-","acidic",11.4
"11755","ON=C(C1(=CC=CC=C1))C","CC(N=O)C1C=CC=CC=1","InChI=1S/C8H9NO/c1-7(9-10)8-5-3-2-4-6-8/h2-7H,1H3","DKCIKFUVZULJCJ-UHFFFAOYSA-N","?, ?","25",,"apparent","?, ?","acidic",11.415
"11113","ClC2(=CC=1(N=C(CO)NC=1C=C2))","OCC1NC2C=CC(Cl)=CC=2N=1","InChI=1S/C8H7ClN2O/c9-5-1-2-6-7(3-5)11-8(4-12)10-6/h1-3,12H,4H2,(H,10,11)","NIWRFQPRPJVQLO-UHFFFAOYSA-N","?","30","potentiometric","a1/apparent","O-H","acidic",11.46
"14911","OC1(=C(C=C(CC(C)(C)C)C=C1)CN(C)C)","CN(C)CC1C=C(CC(C)(C)C)C=CC=1O","InChI=1S/C14H23NO/c1-14(2,3)9-11-6-7-13(16)12(8-11)10-15(4)5/h6-8,16H,9-10H2,1-5H3","CNSDPOVELBFSRJ-UHFFFAOYSA-N","?","25","potentiometric","a1/thermodynamic","OH","acidic",11.48
"17025","OC=1(N(N=C(C=1CC)C)C2(=CC=CC=C2))","CC1=NN(C(O)=C1CC)C1C=CC=CC=1","InChI=1S/C12H14N2O/c1-3-11-9(2)13-14(12(11)15)10-7-5-4-6-8-10/h4-8,15H,3H2,1-2H3","UUOKEWKXBQCYAM-UHFFFAOYSA-N","?",,"potentiometric","b/apparent","?","acidic",11.5
"17415","S=C(N)C(=O)N","NC(=S)C(N)=O","InChI=1S/C2H4N2OS/c3-1(5)2(4)6/h(H2,3,5)(H2,4,6)","PJKKDRZVAVHJNB-UHFFFAOYSA-N","?, ?","25","spectrophotometric","a1/thermodynamic","?, ?","acidic",11.5
"14735","O(O)C","COO","InChI=1S/CH4O2/c1-3-2/h2H,1H3","MEUKEBNAABNAEX-UHFFFAOYSA-N","?","20","spectrophotometric","a/apparent","?","acidic",11.5
"16647","S(=O)(=O)(NCC1(=CC=CC=C1))C2(=CC=C(OC)C=C2)","COC1C=CC(=CC=1)S(=O)(=O)NCC1C=CC=CC=1","InChI=1S/C14H15NO3S/c1-18-13-7-9-14(10-8-13)19(16,17)15-11-12-5-3-2-4-6-12/h2-10,15H,11H2,1H3","CDTRGFYYGHIFTP-UHFFFAOYSA-N","?","25","spectrophotometric","a1/apparent","N-H","acidic",11.53
"10528","O=C(C1(=C(O)C=C(C)C(=C1)C))C","CC1=CC(O)=C(C=C1C)C(=C)O","InChI=1S/C10H12O2/c1-6-4-9(8(3)11)10(12)5-7(6)2/h4-5,11-12H,3H2,1-2H3","UZCQVKBAUWCFOP-UHFFFAOYSA-N","?","23","mean from 4","a1/apparent","?","acidic",11.56
"16713","OC=1(N(N=C(C=1C2(CCCCC2))C)C3(=CC=CC=C3))","CC1=NN(C(O)=C1C1CCCCC1)C1C=CC=CC=1","InChI=1S/C16H20N2O/c1-12-15(13-8-4-2-5-9-13)16(19)18(17-12)14-10-6-3-7-11-14/h3,6-7,10-11,13,19H,2,4-5,8-9H2,1H3","ZLFSAIFBHDXMFU-UHFFFAOYSA-N","?",,"potentiometric","b/apparent","?","acidic",11.6
"16013","OC1(=NC2(=CC3(=CC=CC=C3(C=C2(N1)))))","OC1NC2=CC3=CC=CC=C3C=C2N=1","InChI=1S/C11H8N2O/c14-11-12-9-5-7-3-1-2-4-8(7)6-10(9)13-11/h1-6H,(H2,12,13,14)","HUOPXZLFTBYAML-UHFFFAOYSA-N","?","20","spectrophotometric","a/apparent","?","acidic",11.62
"15265","O=C(C1(=CC=C(C)C=C1))C[N+]=4(C=3(C(=C2(C(C=CC=C2)=CC=3))C=CC=4))","CC1C=CC(=CC=1)C(O)=C[N+]1C=CC=C2C3C=CC=CC=3C=CC=12","InChI=1S/C22H17NO/c1-16-8-10-18(11-9-16)22(24)15-23-14-4-7-20-19-6-3-2-5-17(19)12-13-21(20)23/h2-15H,1H3/p+1","AVUYFSSOHROBSL-UHFFFAOYSA-O","?","20","potentiometric","a1/apparent","?","acidic",11.7
"17277","N=1(N=CN(C=1)N)","NN1C=NN=C1","InChI=1S/C2H4N4/c3-6-1-4-5-2-6/h1-2H,3H2","FMCUPJKTGNBGEC-UHFFFAOYSA-N","?","25",,"a1","?","acidic",11.75
"15275","S(=O)(=O)(NC(C(=O)[O-])CCC(=O)N)C1(=CC=C(C)C=C1)","CC1C=CC(=CC=1)S(=O)(=O)N=C(CCC(=N)O)C(O)O","InChI=1S/C12H16N2O5S/c1-8-2-4-9(5-3-8)20(18,19)14-10(12(16)17)6-7-11(13)15/h2-5,12,16-17H,6-7H2,1H3,(H2,13,15)","FXNOXICVHCVWSD-UHFFFAOYSA-N","?","25","potentiometric","a1/apparent","SO2-NH-","acidic",11.8
"11834","O=C(C(C(=O)C)C)C(C)C","CC(C)=C(O)C(C)C(=C)O","InChI=1S/C8H14O2/c1-5(2)8(10)6(3)7(4)9/h6,9-10H,4H2,1-3H3","STZPIURHZBMRBM-UHFFFAOYSA-N","?","20",,"a/apparent","?","acidic",11.8
"11823","O=C(NN)C1(=NC=CC=C1)","NNC(=O)C1C=CC=CN=1","InChI=1S/C6H7N3O/c7-9-6(10)5-3-1-2-4-8-5/h1-4H,7H2,(H,9,10)","BAQLNPIEFOYKNB-UHFFFAOYSA-N","?","21","mean from 3","a3/apparent","?","acidic",11.84
"10156","O=C(C1(=NNC=C1))C","C=C(O)C1C=CNN=1","InChI=1S/C5H6N2O/c1-4(8)5-2-3-6-7-5/h2-3,8H,1H2,(H,6,7)","BPGURKYRVFEYRU-UHFFFAOYSA-N","?",,"spectrophotometric","a/apparent","?","acidic",11.85
"16221","O=C(OCC)C(C(=O)C)CC1(=CC=C(C)C=C1)","CCOC(O)=C(CC1=CC=C(C)C=C1)C(C)=O","InChI=1S/C14H18O3/c1-4-17-14(16)13(11(3)15)9-12-7-5-10(2)6-8-12/h5-8,16H,4,9H2,1-3H3","DEHRPRVFFZWLDB-UHFFFAOYSA-N","?","25","spectrophotometric","a1/thermodynamic","?","acidic",11.88
"13932","O=C1(NC=2(C=CC=CC=2(C1=O)))","O=C1C2C=CC=CC=2NC1=O","InChI=1S/C8H5NO2/c10-7-5-3-1-2-4-6(5)9-8(7)11/h1-4H,(H,9,10,11)","JXDYKVIHCLTXOP-UHFFFAOYSA-N","?","30","spectrophotometric","a1/apparent","?","acidic",11.9
"14229","OC1(=C(C(=C)C)CCC(C1)C)","CC(=C)C1CCC(C)CC=1O","InChI=1S/C10H16O/c1-7(2)9-5-4-8(3)6-10(9)11/h8,11H,1,4-6H2,2-3H3","BIPFWTQEMKRHOQ-UHFFFAOYSA-N","?","20",,"a1/apparent","OH","acidic",11.95
"17112","[Br]C=1(C=2(C(C=[N+](C=1)CCCO)=CC=CC=2))","OCCC[N+]1=CC2=CC=CC=C2C(Br)=C1","InChI=1S/C12H13BrNO/c13-12-9-14(6-3-7-15)8-10-4-1-2-5-11(10)12/h1-2,4-5,8-9,15H,3,6-7H2/q+1","CGAXKJPDKGPHQM-UHFFFAOYSA-N","?","25","spectrophotometric","a2/apparent","O-H","acidic",11.99
"16701","S(=O)(C3(=CC(OC)=C(C1(=NC=2(NN=CC=2(N1))))C=C3))C","CS(=O)C1=CC(OC)=C(C=C1)C1NC2C=NNC=2N=1","InChI=1S/C12H12N4O2S/c1-18-10-5-7(19(2)17)3-4-8(10)11-14-9-6-13-16-12(9)15-11/h3-6H,1-2H3,(H2,13,14,15,16)","RZRCMIUAAYOZMZ-UHFFFAOYSA-N","?","25","spectrophotometric","a1/apparent","?","acidic",12.02
"13867","OCC1(=NC=2(C=CC=CC=2(N1)))","OCC1NC2C=CC=CC=2N=1","InChI=1S/C8H8N2O/c11-5-8-9-6-3-1-2-4-7(6)10-8/h1-4,11H,5H2,(H,9,10)","IAJLTMBBAVVMQO-UHFFFAOYSA-N","?","24","mean from 2","a1/apparent","O-H","acidic",12.09
"13585","S=C(NC1(=CC(C(=O)C)=CC=C1))N","C=C(O)C1C=C(C=CC=1)NC(N)=S","InChI=1S/C9H10N2OS/c1-6(12)7-3-2-4-8(5-7)11-9(10)13/h2-5,12H,1H2,(H3,10,11,13)","VSDWSLWLHXVNRU-UHFFFAOYSA-N","?","25","spectrophotometric","a1/apparent","?","acidic",12.1
"17663","O=C(NN)COC","COC/C(/O)=N\N","InChI=1S/C3H8N2O2/c1-7-2-3(6)5-4/h2,4H2,1H3,(H,5,6)","XEPXDMNZXBUSOI-UHFFFAOYSA-N","?","25",,"a1/apparent","NH","acidic",12.14
"15107","O=C([O-])C2(=C(N1(N=C(O)C=C1C))C=CC=C2)","CC1=CC(O)=NN1C1=CC=CC=C1C(O)=O","InChI=1S/C11H10N2O3/c1-7-6-10(14)12-13(7)9-5-3-2-4-8(9)11(15)16/h2-6H,1H3,(H,12,14)(H,15,16)","IYMJEAOTYUFTMV-UHFFFAOYSA-N","?",,"potentiometric","b/apparent","?","acidic",12.2
"10116","[N+]1(=C(N)C=CC=C1)(C)","C[N+]1C=CC=CC=1N","InChI=1S/C6H8N2/c1-8-5-3-2-4-6(8)7/h2-5,7H,1H3/p+1","SSDQZFNBHWFLIZ-UHFFFAOYSA-O","?","21","potentiometric","a/apparent","?","acidic",12.2
"16123","O=C(OC)C2(=C(N1(N=C(O)C=C1C))C=CC=C2)","CC1=CC(O)=NN1C1C=CC=CC=1C(=O)OC","InChI=1S/C12H12N2O3/c1-8-7-11(15)13-14(8)10-6-4-3-5-9(10)12(16)17-2/h3-7H,1-2H3,(H,13,15)","YVYYVVLKCZVZBD-UHFFFAOYSA-N","?",,"potentiometric","b/apparent","?","acidic",12.3
"14316","ClC1(=CC=C(NC(=S)N)C=C1)","NC(=S)NC1C=CC(Cl)=CC=1","InChI=1S/C7H7ClN2S/c8-5-1-3-6(4-2-5)10-7(9)11/h1-4H,(H3,9,10,11)","XVEFWRUIYOXUGG-UHFFFAOYSA-N","?","25","spectrophotometric","a1/apparent","?","acidic",12.3
"14317","[Br]C1(=CC=C(NC(=S)N)C=C1)","NC(=S)NC1C=CC(Br)=CC=1","InChI=1S/C7H7BrN2S/c8-5-1-3-6(4-2-5)10-7(9)11/h1-4H,(H3,9,10,11)","MRVQULNOKCOGHC-UHFFFAOYSA-N","?","25","spectrophotometric","a1/apparent","?","acidic",12.35
"16904","O=C(OCC)C3(=C(N1(N=C(O)C=C1C2(=CC=CC=C2)))C=CC=C3)","CCOC(=O)C1C=CC=CC=1N1N=C(O)C=C1C1C=CC=CC=1","InChI=1S/C18H16N2O3/c1-2-23-18(22)14-10-6-7-11-15(14)20-16(12-17(21)19-20)13-8-4-3-5-9-13/h3-12H,2H2,1H3,(H,19,21)","DGDDBLQDAYUWTD-UHFFFAOYSA-N","?",,"potentiometric","b/apparent","?","acidic",12.4
"15367","OC(C1(=NC=CC=C1))(C2(=CC=NC=C2))C3(=CC=NC=C3)","OC(C1C=CC=CN=1)(C1C=CN=CC=1)C1C=CN=CC=1","InChI=1S/C16H13N3O/c20-16(13-4-9-17-10-5-13,14-6-11-18-12-7-14)15-3-1-2-8-19-15/h1-12,20H","AOVUVHQZBJTFLQ-UHFFFAOYSA-N","?","20",,"a/apparent","?","acidic",12.44
"16739","O3(C(N2(C1(=NC=NC(=C1N=C2)N)))C(O)C(C3CO)O)","NC1N=CN=C2C=1N=CN2C1OC(CO)C(O)C1O","InChI=1S/C10H13N5O4/c11-8-5-9(13-2-12-8)15(3-14-5)10-7(18)6(17)4(1-16)19-10/h2-4,6-7,10,16-18H,1H2,(H2,11,12,13)","OIRDTQYFTABQOQ-UHFFFAOYSA-N","?","24","mean from 2","a1/apparent","?","acidic",12.5
"13822","N=2(C1(=C(C=C(C)C(=C1)C)NC=2))","CC1=CC2N=CNC=2C=C1C","InChI=1S/C9H10N2/c1-6-3-8-9(4-7(6)2)11-5-10-8/h3-5H,1-2H3,(H,10,11)","LJUQGASMPRMWIW-UHFFFAOYSA-N","?","20","spectrophotometric","a2/apparent","?","acidic",12.52
"14839","OC1(=C(C=C(C)C=C1C(C)(C)C)C(C)(C)C)","CC1C=C(C(O)=C(C=1)C(C)(C)C)C(C)(C)C","InChI=1S/C15H24O/c1-10-8-11(14(2,3)4)13(16)12(9-10)15(5,6)7/h8-9,16H,1-7H3","NLZUEZXRPGMBCV-UHFFFAOYSA-N","?","25",,"a1/thermodynamic","OH","acidic",12.55
"14179","O(O)C(C1(=CC=CC=C1))(C)C","CC(C)(OO)C1C=CC=CC=1","InChI=1S/C9H12O2/c1-9(2,11-10)8-6-4-3-5-7-8/h3-7,10H,1-2H3","YQHLDYVWEZKEOX-UHFFFAOYSA-N","?","25","mean from 2","a1/apparent","H","acidic",12.64
"15456","P(=O)(CCCCCC)(CCCCCC)CCCCCC","CCCCCCP(=O)(CCCCCC)CCCCCC","InChI=1S/C18H39OP/c1-4-7-10-13-16-20(19,17-14-11-8-5-2)18-15-12-9-6-3/h4-18H2,1-3H3","PPDZLUVUQQGIOJ-UHFFFAOYSA-N","?","25","conductometric","a1/apparent","?","acidic",12.75
"13052","OC(O)C1(=NC=CC=C1)","OC(O)C1C=CC=CN=1","InChI=1S/C6H7NO2/c8-6(9)5-3-1-2-4-7-5/h1-4,6,8-9H","UAPCKORZDAFJAB-UHFFFAOYSA-N","?","20","spectrophotometric","a2/apparent","?","acidic",12.8
"11668","S=C(N)C1(=CC=C(C)C=C1)","CC1=CC=C(C=C1)C(N)=S","InChI=1S/C8H9NS/c1-6-2-4-7(5-3-6)8(9)10/h2-5H,1H3,(H2,9,10)","QXYZSNGZMDVLKN-UHFFFAOYSA-N","?","20","spectrophotometric","a1/apparent","?","acidic",12.8
"11842","O=C(C(C(=O)C)C(C)C)C","CC(C)C(C(=C)O)C(=C)O","InChI=1S/C8H14O2/c1-5(2)8(6(3)9)7(4)10/h5,8-10H,3-4H2,1-2H3","OJWKNWUPDZUDGJ-UHFFFAOYSA-N","?","20",,"a/apparent","?","acidic",12.85
"17045","S(C1(=CC=C([N+](=O)[O-])C=C1))C2(NC(=O)C2)","[O-][N+](=O)C1C=CC(=CC=1)SC1CC(O)=N1","InChI=1S/C9H8N2O3S/c12-8-5-9(10-8)15-7-3-1-6(2-4-7)11(13)14/h1-4,9H,5H2,(H,10,12)","UXVFUJRMQXAGBZ-UHFFFAOYSA-N","?","25",,"a1/apparent","N-H","acidic",12.97
"15318","OC(C1(=CC=NC=C1))(C2(=CC=NC=C2))C3(=CC=CC=C3)","OC(C1C=CC=CC=1)(C1C=CN=CC=1)C1C=CN=CC=1","InChI=1S/C17H14N2O/c20-17(14-4-2-1-3-5-14,15-6-10-18-11-7-15)16-8-12-19-13-9-16/h1-13,20H","KMDMYSVHOOUXAT-UHFFFAOYSA-N","?","20",,"a/apparent","?","acidic",13.07
"13059","OC(O)C1(=CN=CC=C1)","OC(O)C1=CN=CC=C1","InChI=1S/C6H7NO2/c8-6(9)5-2-1-3-7-4-5/h1-4,6,8-9H","CTZBYLVHJHSEPX-UHFFFAOYSA-N","?","20","spectrophotometric","a2/apparent","?","acidic",13.1
"13256","O=C2(CC1(=C(C=C(OC)C=C1)CC2))","COC1=CC2CC=C(O)CC=2C=C1","InChI=1S/C11H12O2/c1-13-11-5-3-8-6-10(12)4-2-9(8)7-11/h3-5,7,12H,2,6H2,1H3","NZVDNHPOCFTTDM-UHFFFAOYSA-N","?","25","spectrophotometric","a1/apparent","?","acidic",13.27
"13732","N=3(C1(=C(C=C2(CCCCC2(=C1)))NC=3))","C1CCCC2=CC3NC=NC=3C=C21","InChI=1S/C11H12N2/c1-2-4-9-6-11-10(12-7-13-11)5-8(9)3-1/h5-7H,1-4H2,(H,12,13)","HPPTULNWMICSJI-UHFFFAOYSA-N","?","20","spectrophotometric","a2/apparent","?","acidic",13.33
"14989","O(C2(=CC=1(NC=3(C(=NC=CC=3(C=1C=C2))C))))C","CC1=NC=CC2=C1NC1C=C(C=CC2=1)OC","InChI=1S/C13H12N2O/c1-8-13-11(5-6-14-8)10-4-3-9(16-2)7-12(10)15-13/h3-7,15H,1-2H3","BXNJHAXVSOCGBA-UHFFFAOYSA-N","?","24","mean from 2","a1/thermodynamic","protone","acidic",13.46
"12959","O=C(N)C1(=CN=CC=C1)","NC(=O)C1C=CC=NC=1","InChI=1S/C6H6N2O/c7-6(9)5-2-1-3-8-4-5/h1-4H,(H2,7,9)","DFPAKSUCGFBDDF-UHFFFAOYSA-N","?","22","spectrophotometric","b2/thermodynamic","?","acidic",13.5
"12721","N=1(NC=2(C=CC=CC=2(C=1)))","C1=NNC2C=CC=CC=21","InChI=1S/C7H6N2/c1-2-4-7-6(3-1)5-8-9-7/h1-5H,(H,8,9)","BAXOFTOLAUCFNW-UHFFFAOYSA-N","?","25",,"a2/thermodynamic","?","acidic",13.86
"16345","O=[N+]([O-])C3(=CC1(=C(NC2(=C1CCNC2C))C=C3))","CC1NCCC2C3C=C(C=CC=3NC=21)[N+]([O-])=O","InChI=1S/C12H13N3O2/c1-7-12-9(4-5-13-7)10-6-8(15(16)17)2-3-11(10)14-12/h2-3,6-7,13-14H,4-5H2,1H3","DHHVFMPJLMYDNC-UHFFFAOYSA-N","?","25","spectrophotometric","a1/apparent","N-H","acidic",14.1
"17362","S(C(O)C)CC","CCSC(C)O","InChI=1S/C4H10OS/c1-3-6-4(2)5/h4-5H,3H2,1-2H3","NUTVORGGYDQIDD-UHFFFAOYSA-N","?","25",,"a1/apparent","OH","acidic",14.34
"14987","O(C3(=CC1(=C(NC2(=C1CCN=C2C))C=C3)))C","CC1=NCCC2=C1NC1C=CC(=CC2=1)OC","InChI=1S/C13H14N2O/c1-8-13-10(5-6-14-8)11-7-9(16-2)3-4-12(11)15-13/h3-4,7,15H,5-6H2,1-2H3","HMBHRMFLDKKSCT-UHFFFAOYSA-N","?","25","spectrophotometric","a1/apparent","N-H","acidic",14.54
"11496","O=[N+]([O-])C1(=CN=C(N)N=C1)","NC1=NC=C(C=N1)[N+]([O-])=O","InChI=1S/C4H4N4O2/c5-4-6-1-3(2-7-4)8(9)10/h1-2H,(H2,5,6,7)","SSHFCFRJYJIJDV-UHFFFAOYSA-N","?","24.9","spectrophotometric","a1/apparent","NH","acidic",14.7
"17168","ClC3(=CC1(=C(NC2(=C1CCNC2C))C=C3))","CC1NCCC2C3C=C(Cl)C=CC=3NC=21","InChI=1S/C12H13ClN2/c1-7-12-9(4-5-14-7)10-6-8(13)2-3-11(10)15-12/h2-3,6-7,14-15H,4-5H2,1H3","XAFDPMYETCYISS-UHFFFAOYSA-N","?","25","spectrophotometric","a1/apparent","N-H","acidic",15.2
"14738","OCC","CCO","InChI=1S/C2H6O/c1-2-3/h3H,2H2,1H3","LFQSCWFLJHTTHZ-UHFFFAOYSA-N","?","25","mean from 7","a1/apparent","?","acidic",15.54
"17232","OCCC","CCCO","InChI=1S/C3H8O/c1-2-3-4/h4H,2-3H2,1H3","BDERNNFJNOPAEC-UHFFFAOYSA-N","?","25","mean from 4","a1/apparent","?","acidic",15.97
"10879","O=[N+]([O-])C1(=CC=C(C(=O)C)C=C1)","C=C(O)C1C=CC(=CC=1)[N+]([O-])=O","InChI=1S/C8H7NO3/c1-6(10)7-2-4-8(5-3-7)9(11)12/h2-5,10H,1H2","PSRHMZYBUBSKKU-UHFFFAOYSA-N","?","25",,"a1/apparent","?","acidic",16.65
"11446","ClC1(=CC=C(C(=O)C)C=C1)","C=C(O)C1C=CC(Cl)=CC=1","InChI=1S/C8H7ClO/c1-6(10)7-2-4-8(9)5-3-7/h2-5,10H,1H2","VSCPTEHSYIIKDR-UHFFFAOYSA-N","?","25",,"a1/apparent","?","acidic",18.08
"11447","FC1(=CC=C(C(=O)C)C=C1)","C=C(O)C1C=CC(F)=CC=1","InChI=1S/C8H7FO/c1-6(10)7-2-4-8(9)5-3-7/h2-5,10H,1H2","IENCGDGTEOOWDW-UHFFFAOYSA-N","?","25",,"a1/apparent","?","acidic",18.46