"Molecule name","OriginalSmiles","Canonical_QSARr","InChI_Code_QSARr","InChI Key_QSARr","Salt_Solvent (Concatenate)","temp","method","type","group","basicOrAcidic","pKa"
"15964","[Br]C1(=C(OC)C(=C(O)C(=C1)[Br])C(=O)NCC2([NH+](CCC2)CC))","CCN1CCCC1CNC(=O)C1C(O)=C(Br)C=C(Br)C=1OC","InChI=1S/C15H20Br2N2O3/c1-3-19-6-4-5-9(19)8-18-15(21)12-13(20)10(16)7-11(17)14(12)22-2/h7,9,20H,3-6,8H2,1-2H3,(H,18,21)","JNFBCMWINGLNPB-UHFFFAOYSA-N","?","25","potentiometric","a1/apparent","OH","acidic",5.88
"16668","S(=O)(=O)(NC1(=[N+]([O-])C(=CC=C1)C))C2(=CC=C(N)C=C2)","CC1=CC=CC(NS(=O)(=O)C2C=CC(N)=CC=2)=[N+]1[O-]","InChI=1S/C12H13N3O3S/c1-9-3-2-4-12(15(9)16)14-19(17,18)11-7-5-10(13)6-8-11/h2-8,14H,13H2,1H3","PLJUBKSSSUNJIC-UHFFFAOYSA-N","?",,,"a/apparent","?","acidic",5.9
"10153","O=C1(NC(=O)CC1[NH3+])","N=C1CC(=O)NC1O","InChI=1S/C4H6N2O2/c5-2-1-3(7)6-4(2)8/h4-5,8H,1H2,(H,6,7)","BVQQZCKBHKITQU-UHFFFAOYSA-N","?",,"potentiometric","a1/apparent","?","acidic",5.9
"10741","ON=NC1(=NN(C)C(=N1)N(C)C)","CN(C)C1=NC(NN=O)=NN1C","InChI=1S/C5H10N6O/c1-10(2)5-6-4(7-9-12)8-11(5)3/h1-3H3,(H,7,8,12)","QDJFCSJVFADBTE-UHFFFAOYSA-N","?","25","spectrophotometric","a1/apparent","O-H","acidic",5.94
"17321","N1(=NNC(=N1)N)","NC1NN=NN=1","InChI=1S/CH3N5/c2-1-3-5-6-4-1/h(H3,2,3,4,5,6)","ULRPISSMEBPJLN-UHFFFAOYSA-N","?","20","mean from 2","a2/apparent","?","acidic",5.98
"15759","O=C(ONC(=O)C1(=CC=CC=C1))C2(=CC=CC=C2)","O=C(ONC(=O)C1C=CC=CC=1)C1C=CC=CC=1","InChI=1S/C14H11NO3/c16-13(11-7-3-1-4-8-11)15-18-14(17)12-9-5-2-6-10-12/h1-10H,(H,15,16)","NDUPKKOZUXENKU-UHFFFAOYSA-N","?",,"potentiometric","a/apparent","?","acidic",6.0
"11443","IC1(=C(O)C(I)=CC(=C1)C)","CC1=CC(I)=C(O)C(I)=C1","InChI=1S/C7H6I2O/c1-4-2-5(8)7(10)6(9)3-4/h2-3,10H,1H3","YLNIUGKLFHIHRA-UHFFFAOYSA-N","?",,"spectrophotometric","a/apparent","?","acidic",6.0
"15110","S(=O)(=O)(NC=1(SC=CN=1))C2(=CC=C(O)C=C2)","OC1C=CC(=CC=1)S(=O)(=O)NC1=NC=CS1","InChI=1S/C9H8N2O3S2/c12-7-1-3-8(4-2-7)16(13,14)11-9-10-5-6-15-9/h1-6,12H,(H,10,11)","JBACAGZMXLDQCR-UHFFFAOYSA-N","?","25","potentiometric","a/apparent","?","acidic",6.0
"10298","O=C1(N(O)C(=O)CC1)","OC1=CCC(=O)N1O","InChI=1S/C4H5NO3/c6-3-1-2-4(7)5(3)8/h1,6,8H,2H2","AZTDZMSBIOUDLD-UHFFFAOYSA-N","?","25","mean from 2","a1/apparent","OH","acidic",6.04
"16871","O=C2(OC1(=C(C=CC(=C1)O)C(=C2C=3(OC=4(C=CC=CC=4(N=3))))C#N))","N#CC1=C(C(=O)OC2C=C(O)C=CC=21)C1=NC2C=CC=CC=2O1","InChI=1S/C17H8N2O4/c18-8-11-10-6-5-9(20)7-14(10)23-17(21)15(11)16-19-12-3-1-2-4-13(12)22-16/h1-7,20H","FJBJRHZSCDFLBF-UHFFFAOYSA-N","?","22",,"a1/thermodynamic","OH","acidic",6.07
"12352","ClC1(=C(O)C=C2(OC(=O)C=C(C2(=C1))C))","CC1=CC(=O)OC2=CC(O)=C(Cl)C=C21","InChI=1S/C10H7ClO3/c1-5-2-10(13)14-9-4-8(12)7(11)3-6(5)9/h2-4,12H,1H3","JTXAGHXRIBLWES-UHFFFAOYSA-N","?","25","spectrophotometric","a/thermodynamic","?","acidic",6.1
"15359","O=C(OC3(=CC1(=C(N(C)C2(C1(CC[NH+]2C)C))C=C3)))NC","CN1CCC2(C)C1N(C)C1=CC=C(C=C21)OC(=O)NC","InChI=1S/C15H21N3O2/c1-15-7-8-17(3)13(15)18(4)12-6-5-10(9-11(12)15)20-14(19)16-2/h5-6,9,13H,7-8H2,1-4H3,(H,16,19)","PIJVFDBKTWXHHD-UHFFFAOYSA-N","?","15",,"b1/apparent","?","acidic",6.12
"11453","ClC1(=C(O)C(Cl)=CC=C1Cl)","OC1=C(Cl)C(Cl)=CC=C1Cl","InChI=1S/C6H3Cl3O/c7-3-1-2-4(8)6(10)5(3)9/h1-2,10H","XGCHAIDDPMFRLJ-UHFFFAOYSA-N","?","25","conductometric","thermodynamic","?","acidic",6.12
"14492","O=C(OC)[N+]1(=CC=C(C)C=C1)","CC1C=C[N+](=CC=1)C(=O)OC","InChI=1S/C8H10NO2/c1-7-3-5-9(6-4-7)8(10)11-2/h3-6H,1-2H3/q+1","ZXNXSSIJUVAYKW-UHFFFAOYSA-N","?","25","spectrophotometric","a1/apparent","?","acidic",6.15
"16092","S(=O)(=O)(NC1(=NC=NC=C1))C2(=CC=C(N)C=C2)","NC1C=CC(=CC=1)S(=O)(=O)NC1C=CN=CN=1","InChI=1S/C10H10N4O2S/c11-8-1-3-9(4-2-8)17(15,16)14-10-5-6-12-7-13-10/h1-7H,11H2,(H,12,13,14)","PXDBUWPMANSAFI-UHFFFAOYSA-N","?",,"potentiometric","a/apparent","?","acidic",6.17
"16224","N#CC(C#N)C(C1(=CC=CC=C1))C(C#N)C#N","N#CC(C#N)C(C(C#N)C#N)C1C=CC=CC=1","InChI=1S/C13H8N4/c14-6-11(7-15)13(12(8-16)9-17)10-4-2-1-3-5-10/h1-5,11-13H","KUDPUPGWLJTKFK-UHFFFAOYSA-N","?","25","spectrophotometric","a1/apparent","C-H","acidic",6.19
"13286","O=C1(NC(=O)C=2(N=C(N(C=2(N1))C)C))","CC1=NC2=C(NC(=O)NC2=O)N1C","InChI=1S/C7H8N4O2/c1-3-8-4-5(11(3)2)9-7(13)10-6(4)12/h1-2H3,(H2,9,10,12,13)","IUDNBXUYNBXGNT-UHFFFAOYSA-N","?","20","spectrophotometric","a/apparent","?","acidic",6.2
"17534","O=[N+]([O-])NC","CN[N+]([O-])=O","InChI=1S/CH4N2O2/c1-2-3(4)5/h2H,1H3","ARCZSDSOONGBRX-UHFFFAOYSA-N","?","25","potentiometric","a1/thermodynamic","N-H","acidic",6.25
"14886","OC1(=C(C=C(C)C=C1C([NH3+])CO)C([NH3+])CO)","CC1=CC(C(N)CO)=C(O)C(=C1)C(N)CO","InChI=1S/C11H18N2O3/c1-6-2-7(9(12)4-14)11(16)8(3-6)10(13)5-15/h2-3,9-10,14-16H,4-5,12-13H2,1H3","ACUFTTZPKCFWBZ-UHFFFAOYSA-N","?","23.9","potentiometric","a1/apparent","O-H","acidic",6.3
"14828","O=[N+]([O-])C1(=CC(=C(O)C=C1)C(=O)N(C4(=CC=C(N=NC3(=CC=2(OCCOCCOCCOCCOCCOC=2C=C3)))C=C4))CCCC)","CCCCN(C1C=CC(=CC=1)N=NC1=CC2OCCOCCOCCOCCOCCOC=2C=C1)C(=O)C1C=C(C=CC=1O)[N+]([O-])=O","InChI=1S/C33H40N4O10/c1-2-3-12-36(33(39)29-24-28(37(40)41)9-10-30(29)38)27-7-4-25(5-8-27)34-35-26-6-11-31-32(23-26)47-22-20-45-18-16-43-14-13-42-15-17-44-19-21-46-31/h4-11,23-24,38H,2-3,12-22H2,1H3","SJCZLMRKLMTIBP-UHFFFAOYSA-N","?","30","spectrophotometric","a1/apparent","O-H","acidic",6.3
"14191","[Br]C1(=C(O)C(=O)C=C(C=C1)C)","CC1C=CC(Br)=C(O)C(=O)C=1","InChI=1S/C8H7BrO2/c1-5-2-3-6(9)8(11)7(10)4-5/h2-4H,1H3,(H,10,11)","HSOZZQHGFCKHFW-UHFFFAOYSA-N","?","25","potentiometric","a/thermodynamic","?","acidic",6.3
"16233","O(C1(=CC(=C(O)C(=C1)C[NH+](C)C)C[NH+](C)C))C","COC1=CC(CN(C)C)=C(O)C(CN(C)C)=C1","InChI=1S/C13H22N2O2/c1-14(2)8-10-6-12(17-5)7-11(13(10)16)9-15(3)4/h6-7,16H,8-9H2,1-5H3","HIXNUSUJXZDHKB-UHFFFAOYSA-N","?","25","potentiometric","a1/apparent","?","acidic",6.33
"10478","S(=O)(=O)(N)C(F)(F)F","NS(=O)(=O)C(F)(F)F","InChI=1S/CH2F3NO2S/c2-1(3,4)8(5,6)7/h(H2,5,6,7)","KAKQVSNHTBLJCH-UHFFFAOYSA-N","?","25","potentiometric","a1/apparent","?","acidic",6.33
"13191","N#CC(NC(CC)C)=C(C#N)C#N","CC(CC)N=C(C#N)C(C#N)C#N","InChI=1S/C9H10N4/c1-3-7(2)13-9(6-12)8(4-10)5-11/h7-8H,3H2,1-2H3","AEKPUVBKZLNJEK-UHFFFAOYSA-N","?","25","spectrophotometric","a1/apparent","?","acidic",6.35
"17763","SC1(=CC=CC=C1)","SC1C=CC=CC=1","InChI=1S/C6H6S/c7-6-4-2-1-3-5-6/h1-5,7H","RMVRSNDYEFQCLF-UHFFFAOYSA-N","?","23","mean from 6","a1/apparent","SH","acidic",6.37
"10399","O=[N+]([O-])NCC(C)C","CC(C)CN[N+]([O-])=O","InChI=1S/C4H10N2O2/c1-4(2)3-5-6(7)8/h4-5H,3H2,1-2H3","UGUFBDAWRGLNQK-UHFFFAOYSA-N","?","25","potentiometric","a1/thermodynamic","N-H","acidic",6.38
"15853","O=C(O)C3(C2(C(C1(C(C=C(C(C)C)CC1)=CC2))(CCC3)C))(C)","CC(C)C1CCC2C(C=1)=CCC1C(C)(CCCC21C)C(O)=O","InChI=1S/C20H30O2/c1-13(2)14-6-8-16-15(12-14)7-9-17-19(16,3)10-5-11-20(17,4)18(21)22/h7,12-13,16-17H,5-6,8-11H2,1-4H3,(H,21,22)","RSWGJHLUYNHPMX-UHFFFAOYSA-N","?","20","potentiometric","a/thermodynamic","?","acidic",6.4
"14190","[Br]C1(=C(O)C(=O)C=CC(=C1)C)","CC1=CC(Br)=C(O)C(=O)C=C1","InChI=1S/C8H7BrO2/c1-5-2-3-7(10)8(11)6(9)4-5/h2-4H,1H3,(H,10,11)","ZZHNPXVZXGCBML-UHFFFAOYSA-N","?","25","potentiometric","a/thermodynamic","?","acidic",6.41
"14879","OC1(=C(C=C(C)C=C1C[NH+](C)C)C[NH+](C)C)","CC1C=C(CN(C)C)C(O)=C(CN(C)C)C=1","InChI=1S/C13H22N2O/c1-10-6-11(8-14(2)3)13(16)12(7-10)9-15(4)5/h6-7,16H,8-9H2,1-5H3","RQZGJWFANCGCHS-UHFFFAOYSA-N","?","25","potentiometric","a1/apparent","?","acidic",6.45
"10006","SC1(=CC=C(C)C=C1)","CC1=CC=C(S)C=C1","InChI=1S/C7H8S/c1-6-2-4-7(8)5-3-6/h2-5,8H,1H3","WLHCBQAPPJAULW-UHFFFAOYSA-N","?","25","mean from 2","a1/apparent","?","acidic",6.47
"17015","S=C2(N(C(=O)C1(=CC=CC=C1))CC(N2)=O)","OC1CN(C(=O)C2C=CC=CC=2)C(=S)N=1","InChI=1S/C10H8N2O2S/c13-8-6-12(10(15)11-8)9(14)7-4-2-1-3-5-7/h1-5H,6H2,(H,11,13,15)","YTMVOQHVLQJLML-UHFFFAOYSA-N","?","25",,"a2/apparent","?","acidic",6.5
"10321","ON1(C(=NN=C1C)C)","CC1=NN=C(C)N1O","InChI=1S/C4H7N3O/c1-3-5-6-4(2)7(3)8/h8H,1-2H3","QPSOQJFXVRIXDK-UHFFFAOYSA-N","?","25",,"a/apparent","?","acidic",6.5
"12136","O=[N+]([O-])C1(=CC=C(C([N+](=O)[O-])C)C=C1)","CC(C1C=CC(=CC=1)[N+]([O-])=O)[N+]([O-])=O","InChI=1S/C8H8N2O4/c1-6(9(11)12)7-2-4-8(5-3-7)10(13)14/h2-6H,1H3","SYLGCOREUBVFQV-UHFFFAOYSA-N","?","25","spectrophotometric","a1/apparent","?","acidic",6.51
"16822","O=C1(N(C(=O)C(CC)(CC)C(N1)=O)C(=O)C2(=C(OC)C=CC=C2))","COC1C=CC=CC=1C(=O)N1C(=O)NC(=O)C(CC)(CC)C1=O","InChI=1S/C16H18N2O5/c1-4-16(5-2)13(20)17-15(22)18(14(16)21)12(19)10-8-6-7-9-11(10)23-3/h6-9H,4-5H2,1-3H3,(H,17,20,22)","PXTCCSJHKVIKPQ-UHFFFAOYSA-N","?","20","spectrophotometric","a1/apparent","N-H","acidic",6.54
"15689","S(=O)(=O)(NC1(=NC(=CC=N1)C))C2(=CC=C(N)C=C2)","CC1=CC=NC(NS(=O)(=O)C2C=CC(N)=CC=2)=N1","InChI=1S/C11H12N4O2S/c1-8-6-7-13-11(14-8)15-18(16,17)10-4-2-9(12)3-5-10/h2-7H,12H2,1H3,(H,13,14,15)","QPPBRPIAZZHUNT-UHFFFAOYSA-N","?","24","mean from 3","a1/apparent","?","acidic",6.59
"13596","ClC1(=CC=C(C([N+](=O)[O-])=NO)C=C1)","[O-][N+](=O)C(N=O)C1C=CC(Cl)=CC=1","InChI=1S/C7H5ClN2O3/c8-6-3-1-5(2-4-6)7(9-11)10(12)13/h1-4,7H","INLGKOXAAQWRFU-UHFFFAOYSA-N","?","25",,"a1/apparent","OH","acidic",6.6
"14214","[Br]C1(=C(C=C(O)C(C=C1)=O)C)","CC1C=C(O)C(=O)C=CC=1Br","InChI=1S/C8H7BrO2/c1-5-4-8(11)7(10)3-2-6(5)9/h2-4H,1H3,(H,10,11)","ZCVQFZQHEBDHTQ-UHFFFAOYSA-N","?","25","potentiometric","a/thermodynamic","?","acidic",6.6
"15788","S(=O)(=O)(NC=1(SC=C(N=1)C))C2(=CC=C(NC)C=C2)","CC1=CSC(NS(=O)(=O)C2C=CC(=CC=2)NC)=N1","InChI=1S/C11H13N3O2S2/c1-8-7-17-11(13-8)14-18(15,16)10-5-3-9(12-2)4-6-10/h3-7,12H,1-2H3,(H,13,14)","XLCFFZGUSYDFLW-UHFFFAOYSA-N","?","25","potentiometric","a/apparent","?","acidic",6.63
"11109","OC2(=C(C1(=[NH+]CCN1))C=CC=C2)","OC1=CC=CC=C1C1NCCN=1","InChI=1S/C9H10N2O/c12-8-4-2-1-3-7(8)9-10-5-6-11-9/h1-4,12H,5-6H2,(H,10,11)","CSFVISOIQMHABM-UHFFFAOYSA-N","?","20","potentiometric","a2/apparent","?","acidic",6.63
"14501","S(C1(=CC=CC=C1))C[N+](=O)[O-]","[O-][N+](=O)CSC1C=CC=CC=1","InChI=1S/C7H7NO2S/c9-8(10)6-11-7-4-2-1-3-5-7/h1-5H,6H2","GJGUOMBYPKDBSS-UHFFFAOYSA-N","?","25","spectrophotometric","a1/apparent","H-CHNO2","acidic",6.67
"14719","[S+](CC(=O)C1(=CC=C([N+](=O)[O-])C=C1))(C)C","C[S+](C)C=C(O)C1C=CC(=CC=1)[N+]([O-])=O","InChI=1S/C10H11NO3S/c1-15(2)7-10(12)8-3-5-9(6-4-8)11(13)14/h3-7H,1-2H3/p+1","XCFPHAZXIKSZLC-UHFFFAOYSA-O","?","24","spectrophotometric","a1/apparent","RMe2S+ Br-","acidic",6.7
"10949","OC=2(C1(=C(O)C=CC=C1C=CC=2))","OC1C=CC=C2C=CC=C(O)C=12","InChI=1S/C10H8O2/c11-8-5-1-3-7-4-2-6-9(12)10(7)8/h1-6,11-12H","OENHRRVNRZBNNS-UHFFFAOYSA-N","?","20","spectrophotometric","a1/apparent","?","acidic",6.71
"10778","O=[N+]([O-])C1(=C(O)C(OC)=CC=C1)","COC1=CC=CC(=C1O)[N+]([O-])=O","InChI=1S/C7H7NO4/c1-12-6-4-2-3-5(7(6)9)8(10)11/h2-4,9H,1H3","WRXFJKBQZVRPHI-UHFFFAOYSA-N","?","25","spectrophotometric","a/thermodynamic","?","acidic",6.74
"12828","SC1(=CC=C(OC)C=C1)","COC1C=CC(S)=CC=1","InChI=1S/C7H8OS/c1-8-6-2-4-7(9)5-3-6/h2-5,9H,1H3","NIFAOMSJMGEFTQ-UHFFFAOYSA-N","?","25","potentiometric","a1/apparent","SH","acidic",6.76
"11704","O=[N+]([O-])CC1(=CC=CC=C1)","[O-][N+](=O)CC1C=CC=CC=1","InChI=1S/C7H7NO2/c9-8(10)6-7-4-2-1-3-5-7/h1-5H,6H2","VLZLOWPYUQHHCG-UHFFFAOYSA-N","?","20","spectrophotometric","a1/apparent","CH","acidic",6.77
"12138","O=[N+]([O-])C1(=C(O)C=CC(=C1)NC(=O)C)","C/C(/O)=N\C1C=CC(O)=C(C=1)[N+]([O-])=O","InChI=1S/C8H8N2O4/c1-5(11)9-6-2-3-8(12)7(4-6)10(13)14/h2-4,12H,1H3,(H,9,11)","XZYRROIQJHLVRG-UHFFFAOYSA-N","?","25","spectrophotometric","a1/apparent","?","acidic",6.78
"15370","S1(C(=NN=C1C2(=CC=CC=C2))NC(=O)C3(=CC=CC=C3))","O=C(NC1=NN=C(S1)C1C=CC=CC=1)C1C=CC=CC=1","InChI=1S/C15H11N3OS/c19-13(11-7-3-1-4-8-11)16-15-18-17-14(20-15)12-9-5-2-6-10-12/h1-10H,(H,16,18,19)","CUAQDYHIJBQWJV-UHFFFAOYSA-N","?",,"spectrophotometric","a/apparent","?","acidic",6.8
"11206","OC=2(C1(=[N+](C=CC=C1C=CC=2)C))","C[N+]1C=CC=C2C=CC=C(O)C=12","InChI=1S/C10H9NO/c1-11-7-3-5-8-4-2-6-9(12)10(8)11/h2-7H,1H3/p+1","BOYITWKGAJWSEJ-UHFFFAOYSA-O","?","20","potentiometric","a/apparent","?","acidic",6.81
"15237","O=C(N)C1(=C(N=NC(=C1)C2(=CC=CC=C2))NCCN3(CCOCC3))","NC(=O)C1C=C(N=NC=1NCCN1CCOCC1)C1C=CC=CC=1","InChI=1S/C17H21N5O2/c18-16(23)14-12-15(13-4-2-1-3-5-13)20-21-17(14)19-6-7-22-8-10-24-11-9-22/h1-5,12H,6-11H2,(H2,18,23)(H,19,21)","QSTBBPFYHIWPJJ-UHFFFAOYSA-N","?","25","potentiometric","a1/apparent","NH(+)","acidic",6.85
"10178","S1(N=C(CC)N=C1O)","CCC1N=C(O)SN=1","InChI=1S/C4H6N2OS/c1-2-3-5-4(7)8-6-3/h2H2,1H3,(H,5,6,7)","XFNCIUSUSNFNAT-UHFFFAOYSA-N","?","25","potentiometric","a/apparent","?","acidic",6.89
"11208","OC=2(C=1(C(=C[N+](C)=CC=1)C=CC=2))","C[N+]1C=C2C=CC=C(O)C2=CC=1","InChI=1S/C10H9NO/c1-11-6-5-9-8(7-11)3-2-4-10(9)12/h2-7H,1H3/p+1","JQPXNAFQNSXDTG-UHFFFAOYSA-O","?","20","potentiometric","a/apparent","?","acidic",6.9
"16825","ClC1(=C(OC)C(=C(O)C(=C1)CC)C(=O)NCC2([NH+](CCC2)CC))","COC1C(Cl)=CC(CC)=C(O)C=1C(=O)NCC1CCCN1CC","InChI=1S/C17H25ClN2O3/c1-4-11-9-13(18)16(23-3)14(15(11)21)17(22)19-10-12-7-6-8-20(12)5-2/h9,12,21H,4-8,10H2,1-3H3,(H,19,22)","AADCDMQTJNYOSS-UHFFFAOYSA-N","?","25","potentiometric","a1/apparent","OH","acidic",6.91
"16409","S(=O)(=O)(NC2(=NN(C1(=CC=C([N+](=O)[O-])C=C1))C=C2))C3(=CC=C(N)C=C3)","NC1C=CC(=CC=1)S(=O)(=O)NC1C=CN(N=1)C1C=CC(=CC=1)[N+]([O-])=O","InChI=1S/C15H13N5O4S/c16-11-1-7-14(8-2-11)25(23,24)18-15-9-10-19(17-15)12-3-5-13(6-4-12)20(21)22/h1-10H,16H2,(H,17,18)","VEWIIQZBSOQNJK-UHFFFAOYSA-N","?","25","spectrophotometric","a1/apparent","?","acidic",6.94
"13066","O=CC1(=NC=CC=C1O)","OC1=CC=CN=C1C=O","InChI=1S/C6H5NO2/c8-4-5-6(9)2-1-3-7-5/h1-4,9H","ICDSWZBXIZCMHR-UHFFFAOYSA-N","?","20","spectrophotometric","a2/apparent","H+","acidic",6.95
"14480","O=[N+]([O-])CC1(=CC(=CC=C1)C)","CC1C=C(C[N+]([O-])=O)C=CC=1","InChI=1S/C8H9NO2/c1-7-3-2-4-8(5-7)6-9(10)11/h2-5H,6H2,1H3","XTNHKWZXMCOJSB-UHFFFAOYSA-N","?","25","spectrophotometric","a1/apparent","?","acidic",6.97
"12711","O=C(N)C(N)CC(=O)N","NC(=O)CC(=N)C(N)O","InChI=1S/C4H9N3O2/c5-2(4(7)9)1-3(6)8/h4-5,9H,1,7H2,(H2,6,8)","ZDNHPZWSODFLQB-UHFFFAOYSA-N","?",,"potentiometric","a/apparent","?","acidic",7.0
"12057","S1(N=C(O)C2(=C1C=CC=C2))","OC1=NSC2C=CC=CC=21","InChI=1S/C7H5NOS/c9-7-5-3-1-2-4-6(5)10-8-7/h1-4H,(H,8,9)","DMSMPAJRVJJAGA-UHFFFAOYSA-N","?","25","potentiometric","a2/apparent","OH","acidic",7.01
"11285","S1(=O)(=O)(N=CNC2(=C1C=CC=N2))","O=S1(=O)N=CNC2N=CC=CC1=2","InChI=1S/C6H5N3O2S/c10-12(11)5-2-1-3-7-6(5)8-4-9-12/h1-4H,(H,7,8,9)","XTJZVZARRFTFMX-UHFFFAOYSA-N","?","25",,"a1/apparent","?","acidic",7.03
"11220","O=C1(OCC=2(C1=C(O)C(=NC=2)C))","CC1=NC=C2COC(=O)C2=C1O","InChI=1S/C8H7NO3/c1-4-7(10)6-5(2-9-4)3-12-8(6)11/h2,10H,3H2,1H3","HHPDVQLBYQFYFA-UHFFFAOYSA-N","?",,,"a/apparent","?","acidic",7.05
"16086","S(=O)(=O)(NC1(=NN=CC=C1))C2(=CC=C(N)C=C2)","NC1C=CC(=CC=1)S(=O)(=O)NC1C=CC=NN=1","InChI=1S/C10H10N4O2S/c11-8-3-5-9(6-4-8)17(15,16)14-10-2-1-7-12-13-10/h1-7H,11H2,(H,13,14)","KLXBSPXXUGSWGB-UHFFFAOYSA-N","?",,"potentiometric","a/apparent","?","acidic",7.06
"14550","O=[N+]([O-])C1(=CC(=C(O)C=C1)C)","CC1C=C(C=CC=1O)[N+]([O-])=O","InChI=1S/C7H7NO3/c1-5-4-6(8(10)11)2-3-7(5)9/h2-4,9H,1H3","KDQPMQNHVQVVMR-UHFFFAOYSA-N","?","25","spectrophotometric","a1/apparent","?","acidic",7.1
"16440","S(=O)(=O)(NC1(=NC(OC)=CC(=N1)OC))C2(=CC=C(N)C=C2)","COC1=CC(=NC(NS(=O)(=O)C2C=CC(N)=CC=2)=N1)OC","InChI=1S/C12H14N4O4S/c1-19-10-7-11(20-2)15-12(14-10)16-21(17,18)9-5-3-8(13)4-6-9/h3-7H,13H2,1-2H3,(H,14,15,16)","RMSFTZDTJHYIFE-UHFFFAOYSA-N","?",,"spectrophotometric","a/apparent","?","acidic",7.12
"15710","S(=O)(=O)(NC1(=CC(C#N)=CC=C1))C2(=CC=CC=C2)","N#CC1C=C(C=CC=1)NS(=O)(=O)C1C=CC=CC=1","InChI=1S/C13H10N2O2S/c14-10-11-5-4-6-12(9-11)15-18(16,17)13-7-2-1-3-8-13/h1-9,15H","FHXOOBNHLNVYOF-UHFFFAOYSA-N","?","25","mean from 4","a1/apparent","NH","acidic",7.15
"17464","[Br]C([N+](=O)[O-])C","CC(Br)[N+]([O-])=O","InChI=1S/C2H4BrNO2/c1-2(3)4(5)6/h2H,1H3","AMGDESQTWHNCTP-UHFFFAOYSA-N","?","30","spectrophotometric","a1/apparent","CH","acidic",7.17
"14984","OC3(=CC2(=NC=1(C(=CC=C(C=1)C)N=C2C=C3)))","CC1C=C2N=C3C=C(O)C=CC3=NC2=CC=1","InChI=1S/C13H10N2O/c1-8-2-4-10-12(6-8)15-13-7-9(16)3-5-11(13)14-10/h2-7,16H,1H3","BXTHCKXJELJDME-UHFFFAOYSA-N","?","30","spectrophotometric","a1/apparent","?","acidic",7.2
"14107","O=C(OCC)C(=NO)C(=O)C","CCOC(=O)C(N=O)C(=C)O","InChI=1S/C6H9NO4/c1-3-11-6(9)5(7-10)4(2)8/h5,8H,2-3H2,1H3","QZXRGFOSJUDWAF-UHFFFAOYSA-N","?","30","potentiometric","a1/apparent","?","acidic",7.2
"17463","IC([N+](=O)[O-])C","CC(I)[N+]([O-])=O","InChI=1S/C2H4INO2/c1-2(3)4(5)6/h2H,1H3","VDOPYGXUORYJBA-UHFFFAOYSA-N","?","30","spectrophotometric","a1/apparent","CH","acidic",7.24
"15168","S(=O)(=O)(NC=1(SC=CN=1))C2(=CC=C(N)C=C2)","NC1C=CC(=CC=1)S(=O)(=O)NC1=NC=CS1","InChI=1S/C9H9N3O2S2/c10-7-1-3-8(4-2-7)16(13,14)12-9-11-5-6-15-9/h1-6H,10H2,(H,11,12)","JNMRHUJNCSQMMB-UHFFFAOYSA-N","?","20","mean from 3","a/apparent","?","acidic",7.25
"15577","[O-][N+]3(=C1(NC=NC1=C(NCC2(=CC=CC=C2))N=C3))","[O-][N+]1C=NC(NCC2C=CC=CC=2)=C2N=CNC=12","InChI=1S/C12H11N5O/c18-17-8-16-11(10-12(17)15-7-14-10)13-6-9-4-2-1-3-5-9/h1-5,7-8H,6H2,(H,13,16)(H,14,15)","GCZXLDJIDBQCRE-UHFFFAOYSA-N","?","30",,"a2/apparent","?","acidic",7.27
"16902","OC=1(N(N=C(C=1CCCCC)C2(=CC=CC=C2))C3(=CC=CC=C3))","CCCCCC1=C(O)N(N=C1C1C=CC=CC=1)C1C=CC=CC=1","InChI=1S/C20H22N2O/c1-2-3-6-15-18-19(16-11-7-4-8-12-16)21-22(20(18)23)17-13-9-5-10-14-17/h4-5,7-14,23H,2-3,6,15H2,1H3","LHRIEDBDVOJYNR-UHFFFAOYSA-N","?",,"potentiometric","a/apparent","?","acidic",7.3
"11780","[Br]NC(=O)C1(=CC=CC=C1)","O=C(NBr)C1C=CC=CC=1","InChI=1S/C7H6BrNO/c8-9-7(10)6-4-2-1-3-5-6/h1-5H,(H,9,10)","FLYWSBDBTKARFZ-UHFFFAOYSA-N","?","21","potentiometric","a1/apparent","?","acidic",7.3
"11452","[S+](C1(=CC=C(O)C=C1))(C)C","C[S+](C)C1C=CC(O)=CC=1","InChI=1S/C8H10OS/c1-10(2)8-5-3-7(9)4-6-8/h3-6H,1-2H3/p+1","QAEDNLDMOUKNMI-UHFFFAOYSA-O","?","25","mean from 2","a/apparent","?","acidic",7.31
"13128","OC1(=C(C#N)C=CC=C1)","N#CC1C=CC=CC=1O","InChI=1S/C7H5NO/c8-5-6-3-1-2-4-7(6)9/h1-4,9H","CHZCERSEMVWNHL-UHFFFAOYSA-N","?","25","mean from 4","a1/apparent","ArOH","acidic",7.32
"14794","[Br]C6(=CC1(=C(C=5(C=CC=CC=5(C1[P+](C2(=CC=CC=C2))(C3(=CC=CC=C3))C4(=CC=CC=C4))))C=C6))","BrC1=CC2C(C3C=CC=CC=3C=2C=C1)[P+](C1C=CC=CC=1)(C1C=CC=CC=1)C1C=CC=CC=1","InChI=1S/C31H23BrP/c32-23-20-21-28-27-18-10-11-19-29(27)31(30(28)22-23)33(24-12-4-1-5-13-24,25-14-6-2-7-15-25)26-16-8-3-9-17-26/h1-22,31H/q+1","FYWPDCMFCALYBZ-UHFFFAOYSA-N","?","25","spectrophotometric","a1/apparent","?","acidic",7.33
"11949","O1(CC=2(C=CC=CC=2(B1O)))","OB1OCC2C=CC=CC=21","InChI=1S/C7H7BO2/c9-8-7-4-2-1-3-6(7)5-10-8/h1-4,9H,5H2","XOQABDOICLHPIS-UHFFFAOYSA-N","?","25","potentiometric","a/apparent","?","acidic",7.38
"14544","O=C(NO)C1(=C(O)C=CC=C1)","OC1C=CC=CC=1C(=O)NO","InChI=1S/C7H7NO3/c9-6-4-2-1-3-5(6)7(10)8-11/h1-4,9,11H,(H,8,10)","HBROZNQEVUILML-UHFFFAOYSA-N","?","20","mean from 2","a1/thermodynamic","?","acidic",7.39
"12331","O=C2(C1(=C(C=CC=C1)C(C2C(C)C)=O))","CC(C)C1=C(O)C2C=CC=CC=2C1=O","InChI=1S/C12H12O2/c1-7(2)10-11(13)8-5-3-4-6-9(8)12(10)14/h3-7,13H,1-2H3","IRHOHLCQMCGDEJ-UHFFFAOYSA-N","?","25","spectrophotometric","a1/apparent","?","acidic",7.4
"12131","S(=O)(=O)(N)C=1(SC(N(C(=O)C)C)=NN=1)","CN(C(=C)O)C1=NN=C(S1)S(N)(=O)=O","InChI=1S/C5H8N4O3S2/c1-3(10)9(2)4-7-8-5(13-4)14(6,11)12/h10H,1H2,2H3,(H2,6,11,12)","ONKBGJMUAOXBQS-UHFFFAOYSA-N","?",,"spectrophotometric","a/apparent","?","acidic",7.4
"14552","O=[N+]([O-])C1(=C(O)C=CC(=C1)C)","CC1=CC(=C(O)C=C1)[N+]([O-])=O","InChI=1S/C7H7NO3/c1-5-2-3-7(9)6(4-5)8(10)11/h2-4,9H,1H3","SYDNSSSQVSOXTN-UHFFFAOYSA-N","?","25","spectrophotometric","a1/apparent","?","acidic",7.4
"12692","O=C(C(=NO)C(=O)C)C","C=C(O)C(N=O)C(=C)O","InChI=1S/C5H7NO3/c1-3(7)5(6-9)4(2)8/h5,7-8H,1-2H2","CKQWMPBFLLRNTG-UHFFFAOYSA-N","?","25","mean from 2","a1/apparent","?","acidic",7.44
"14530","OC1(=C([N+](C)(C)C)C=CC=C1)","C[N+](C)(C)C1C=CC=CC=1O","InChI=1S/C9H13NO/c1-10(2,3)8-6-4-5-7-9(8)11/h4-7H,1-3H3/p+1","VDAMZFHTCKFXBJ-UHFFFAOYSA-O","?","25","mean from 2","a/apparent","?","acidic",7.46
"16581","S(=O)(=O)(NC1(=NC(=NC(=C1)C)C))C2(=CC=C(N)C=C2)","CC1=CC(NS(=O)(=O)C2C=CC(N)=CC=2)=NC(C)=N1","InChI=1S/C12H14N4O2S/c1-8-7-12(15-9(2)14-8)16-19(17,18)11-5-3-10(13)4-6-11/h3-7H,13H2,1-2H3,(H,14,15,16)","YZMCKZRAOLZXAZ-UHFFFAOYSA-N","?","20","potentiometric","a2/apparent","?","acidic",7.49