"Molecule name","OriginalSmiles","Canonical_QSARr","InChI_Code_QSARr","InChI Key_QSARr","Salt_Solvent (Concatenate)","temp","method","type","group","basicOrAcidic","pKa"
"16088","S(=O)(=O)(NC1(=NC=CC=N1))C2(=CC=C(N)C=C2)","NC1C=CC(=CC=1)S(=O)(=O)NC1N=CC=CN=1","InChI=1S/C10H10N4O2S/c11-8-2-4-9(5-3-8)17(15,16)14-10-12-6-1-7-13-10/h1-7H,11H2,(H,12,13,14)","SEEPANYCNGTZFQ-UHFFFAOYSA-N","?","24","mean from 3","a1/apparent","?","acidic",6.42
"14497","S1(C(=O)NC(C1(CC)CC)=O)","CCC1(CC)SC(=O)NC1=O","InChI=1S/C7H11NO2S/c1-3-7(4-2)5(9)8-6(10)11-7/h3-4H2,1-2H3,(H,8,9,10)","ICKLQYXMLPQXJG-UHFFFAOYSA-N","?","20","potentiometric","a/apparent","?","acidic",6.42
"14423","S(C(=NC)C1(=CC=CC=C1))C","CN=C(SC)C1C=CC=CC=1","InChI=1S/C9H11NS/c1-10-9(11-2)8-6-4-3-5-7-8/h3-7H,1-2H3","PCHKPGSXUAGLCS-UHFFFAOYSA-N","?","25","potentiometric","a1/apparent","?","acidic",6.42
"12128","OC1(=CC(NN=C(C#N)C#N)=CC=C1)","N#CC(C#N)N=NC1C=C(O)C=CC=1","InChI=1S/C9H6N4O/c10-5-8(6-11)13-12-7-2-1-3-9(14)4-7/h1-4,8,14H","KHJGHPYLXDGEBH-UHFFFAOYSA-N","?","25","spectrophotometric","a1/apparent","?","acidic",6.45
"13244","O=C(O)C(NCCC#N)CC(=O)N","NC(=O)CC(=NCCC#N)C(O)O","InChI=1S/C7H11N3O3/c8-2-1-3-10-5(7(12)13)4-6(9)11/h7,12-13H,1,3-4H2,(H2,9,11)","BIIGNIGOSLNUCR-UHFFFAOYSA-N","?","20",,"a2/apparent","?","acidic",6.46
"17668","O=[N+]([O-])NCCC","CCCN[N+]([O-])=O","InChI=1S/C3H8N2O2/c1-2-3-4-5(6)7/h4H,2-3H2,1H3","MCROFHCOHPROAE-UHFFFAOYSA-N","?","25","potentiometric","a1/thermodynamic","N-H","acidic",6.47
"17893","S=C1(SCC(N1)=O)","OC1CSC(=S)N=1","InChI=1S/C3H3NOS2/c5-2-1-7-3(6)4-2/h1H2,(H,4,5,6)","KIWUVOGUEXMXSV-UHFFFAOYSA-N","?","25","mean from 3","a1/apparent","?","acidic",6.48
"10398","O=[N+]([O-])NCCCC","CCCCN[N+]([O-])=O","InChI=1S/C4H10N2O2/c1-2-3-4-5-6(7)8/h5H,2-4H2,1H3","FCLOSAGZCUDMFV-UHFFFAOYSA-N","?","25","potentiometric","a1/thermodynamic","N-H","acidic",6.48
"13918","SC=2(C=1(C(=NC=CC=1)C=CC=2))","SC1=CC=CC2=NC=CC=C21","InChI=1S/C9H7NS/c11-9-5-1-4-8-7(9)3-2-6-10-8/h1-6,11H","XAXWWYIMGUQNMY-UHFFFAOYSA-N","?","20","spectrophotometric","a2/apparent","?","acidic",6.48
"12327","O=C2(OC1(=C(C=C(OC)C(=C1)O)C=C2))","COC1=CC2C=CC(=O)OC=2C=C1O","InChI=1S/C10H8O4/c1-13-9-4-6-2-3-10(12)14-8(6)5-7(9)11/h2-5,11H,1H3","RODXRVNMMDRFIK-UHFFFAOYSA-N","?","20","potentiometric","a1/apparent","H of OH","acidic",6.5
"13254","O=C2(C1(=C(C=CC=C1)C(C2CC)=O))","CCC1=C(O)C2C=CC=CC=2C1=O","InChI=1S/C11H10O2/c1-2-7-10(12)8-5-3-4-6-9(8)11(7)13/h3-6,12H,2H2,1H3","JSGPNNFTKXOVPO-UHFFFAOYSA-N","?","25","spectrophotometric","a1/apparent","?","acidic",6.5
"14846","ClCCC1(=CC=C(NN=C(C#N)C#N)C=C1)","N#CC(C#N)N=NC1C=CC(CCCl)=CC=1","InChI=1S/C11H9ClN4/c12-6-5-9-1-3-10(4-2-9)15-16-11(7-13)8-14/h1-4,11H,5-6H2","VBRDQJNXPOGDAB-UHFFFAOYSA-N","?","25","spectrophotometric","a1/apparent","N-H","acidic",6.5
"13910","SC2(=CC=1(C(=NC=CC=1)C=C2))","SC1=CC2=CC=CN=C2C=C1","InChI=1S/C9H7NS/c11-8-3-4-9-7(6-8)2-1-5-10-9/h1-6,11H","WKTZMPNNJIPTON-UHFFFAOYSA-N","?","20","spectrophotometric","a2/apparent","?","acidic",6.5
"15183","S(=O)(=O)(NC=1(OC=CN=1))C2(=CC=C(N)C=C2)","NC1C=CC(=CC=1)S(=O)(=O)NC1=NC=CO1","InChI=1S/C9H9N3O3S/c10-7-1-3-8(4-2-7)16(13,14)12-9-11-5-6-15-9/h1-6H,10H2,(H,11,12)","RYKARZOAAYTVAL-UHFFFAOYSA-N","?",,"potentiometric","a/apparent","?","acidic",6.5
"10479","ClC(S(=O)(=O)N)(F)F","NS(=O)(=O)C(F)(F)Cl","InChI=1S/CH2ClF2NO2S/c2-1(3,4)8(5,6)7/h(H2,5,6,7)","BFWPREHUIRCMLD-UHFFFAOYSA-N","?","25",,"a1/apparent","?","acidic",6.5
"13190","FC(F)(F)C(=O)CC(=O)CC(C)C","CC(C)CC(=O)C=C(O)C(F)(F)F","InChI=1S/C8H11F3O2/c1-5(2)3-6(12)4-7(13)8(9,10)11/h4-5,13H,3H2,1-2H3","JBWWJROTMONGQY-UHFFFAOYSA-N","?","25",,"a/apparent","?","acidic",6.52
"13500","[Br]C1(=C(C=C(O)C(C=C1)=O)C(C)C)","CC(C)C1C=C(O)C(=O)C=CC=1Br","InChI=1S/C10H11BrO2/c1-6(2)7-5-10(13)9(12)4-3-8(7)11/h3-6H,1-2H3,(H,12,13)","XXRFBIMTKXBOTJ-UHFFFAOYSA-N","?","25","potentiometric","a/thermodynamic","?","acidic",6.53
"10481","[Br]C(S(=O)(=O)N)(F)F","NS(=O)(=O)C(F)(F)Br","InChI=1S/CH2BrF2NO2S/c2-1(3,4)8(5,6)7/h(H2,5,6,7)","JJBSAQVSTICPAQ-UHFFFAOYSA-N","?","25",,"a1/apparent","?","acidic",6.53
"17880","S1(C(=O)NC(C1)=O)","OC1CSC(=O)N=1","InChI=1S/C3H3NO2S/c5-2-1-7-3(6)4-2/h1H2,(H,4,5,6)","ZOBPZXTWZATXDG-UHFFFAOYSA-N","?","22","mean from 3","a1/apparent","?","acidic",6.54
"15857","O=C3(N2(N(C1(=C(C=CC(=C1)C)N=C2N(C)C))C(=C3CCC)O))","CN(C)C1=NC2C=CC(C)=CC=2N2C(O)=C(CCC)C(=O)N21","InChI=1S/C16H20N4O2/c1-5-6-11-14(21)19-13-9-10(2)7-8-12(13)17-16(18(3)4)20(19)15(11)22/h7-9,21H,5-6H2,1-4H3","FWWRYFMLRVWIJF-UHFFFAOYSA-N","?","25","potentiometric","a2/apparent","?","acidic",6.55
"13536","N#CC(=NNC1(=CC=CC=C1))C#N","N#CC(C#N)N=NC1C=CC=CC=1","InChI=1S/C9H6N4/c10-6-9(7-11)13-12-8-4-2-1-3-5-8/h1-5,9H","KLMBASWITNCMTF-UHFFFAOYSA-N","?","25","mean from 2","a1/apparent","?","acidic",6.55
"15915","O=C2(OC1(=C(O)C(O)=CC4(=C1C3(=C2C=C(O)C(=C3OC4=O)O))))","OC1=CC2=C3C4C(OC2=O)=C(O)C(O)=CC=4C(=O)OC3=C1O","InChI=1S/C14H6O8/c15-5-1-3-7-8-4(14(20)22-11(7)9(5)17)2-6(16)10(18)12(8)21-13(3)19/h1-2,15-18H","AFSDNFLWKVMVRB-UHFFFAOYSA-N","?",,"potentiometric","a/apparent","?","acidic",6.59
"14630","N#CC(=NNC1(=C(C=CC=C1C)C))C#N","CC1C=CC=C(C)C=1N=NC(C#N)C#N","InChI=1S/C11H10N4/c1-8-4-3-5-9(2)11(8)15-14-10(6-12)7-13/h3-5,10H,1-2H3","SQEUWWVFNYITIZ-UHFFFAOYSA-N","?","25","spectrophotometric","a1/apparent","N-H","acidic",6.6
"12819","[Br]C1(=C(O)C([Br])=CC=C1)","OC1C(Br)=CC=CC=1Br","InChI=1S/C6H4Br2O/c7-4-2-1-3-5(8)6(4)9/h1-3,9H","SSIZLKDLDKIHEV-UHFFFAOYSA-N","?","25","potentiometric","apparent","?","acidic",6.6
"11410","ClC1(=C(C=CC(=C1)O)C=O)","OC1C=CC(C=O)=C(Cl)C=1","InChI=1S/C7H5ClO2/c8-7-3-6(10)2-1-5(7)4-9/h1-4,10H","ZMOMCILMBYEGLD-UHFFFAOYSA-N","?","25","spectrophotometric","a1/apparent","?","acidic",6.6
"13594","[Br]C1(C(=O)NC(=O)NC1=O)(CCC)","CCCC1(Br)C(=O)NC(=O)NC1=O","InChI=1S/C7H9BrN2O3/c1-2-3-7(8)4(11)9-6(13)10-5(7)12/h2-3H2,1H3,(H2,9,10,11,12,13)","FWLYFQHBQRVXMX-UHFFFAOYSA-N","?","30","conductometric","a/apparent","?","acidic",6.6
"16209","O=C1(N(N=CC(N1)=O)C2(OC(CO)C(C2O)O))","OCC1OC(C(O)C1O)N1N=CC(=O)NC1=O","InChI=1S/C8H11N3O6/c12-2-3-5(14)6(15)7(17-3)11-8(16)10-4(13)1-9-11/h1,3,5-7,12,14-15H,2H2,(H,10,13,16)","WYXSYVWAUAUWLD-UHFFFAOYSA-N","?","25","spectrophotometric","a1/apparent","N-H","acidic",6.6
"11420","ClC1(=C(O)C(=CC=C1)C=O)","OC1=C(Cl)C=CC=C1C=O","InChI=1S/C7H5ClO2/c8-6-3-1-2-5(4-9)7(6)10/h1-4,10H","DOHOPUBZLWVZMZ-UHFFFAOYSA-N","?","25","spectrophotometric","a1/apparent","?","acidic",6.61
"16094","S(=O)(=O)(NC1(=CN=CN=C1))C2(=CC=C(N)C=C2)","NC1C=CC(=CC=1)S(=O)(=O)NC1C=NC=NC=1","InChI=1S/C10H10N4O2S/c11-8-1-3-10(4-2-8)17(15,16)14-9-5-12-7-13-6-9/h1-7,14H,11H2","OIPFAEVFPXYUDR-UHFFFAOYSA-N","?",,"potentiometric","a/apparent","?","acidic",6.62
"12563","OC=1(N(N=C(C=1)C)C2(CC[NH+](C)CC2))","CN1CCC(CC1)N1N=C(C)C=C1O","InChI=1S/C10H17N3O/c1-8-7-10(14)13(11-8)9-3-5-12(2)6-4-9/h7,9,14H,3-6H2,1-2H3","CIUSLKWBNSPJMT-UHFFFAOYSA-N","?",,"potentiometric","a1/apparent","?","acidic",6.63
"16590","S(=O)(=O)(NC1(=CC=C([N+](=O)[O-])C=C1))C2(=CC=CC=C2)","[O-][N+](=O)C1C=CC(=CC=1)NS(=O)(=O)C1C=CC=CC=1","InChI=1S/C12H10N2O4S/c15-14(16)11-8-6-10(7-9-11)13-19(17,18)12-4-2-1-3-5-12/h1-9,13H","SWSJPCDGJYPPCS-UHFFFAOYSA-N","?","23","mean from 5","a1/apparent","NH","acidic",6.63
"14997","OC3(=CC2(=[NH+]C=1(C(=CC=CC=1)C(=C2C=C3)N)))","NC1C2=CC=CC=C2N=C2C=C(O)C=CC2=1","InChI=1S/C13H10N2O/c14-13-9-3-1-2-4-11(9)15-12-7-8(16)5-6-10(12)13/h1-7,16H,(H2,14,15)","VRPPSLVVOJJJPC-UHFFFAOYSA-N","?","20","spectrophotometric","a/apparent","?","acidic",6.63
"14500","ClC1(=CC(=CC=C1)C[N+](=O)[O-])","[O-][N+](=O)CC1C=C(Cl)C=CC=1","InChI=1S/C7H6ClNO2/c8-7-3-1-2-6(4-7)5-9(10)11/h1-4H,5H2","HBDVLCNYKBOPPO-UHFFFAOYSA-N","?","25","spectrophotometric","a1/apparent","?","acidic",6.63
"13091","S1(C(=O)NC(C1(C)C)=O)","CC1(C)SC(=O)NC1=O","InChI=1S/C5H7NO2S/c1-5(2)3(7)6-4(8)9-5/h1-2H3,(H,6,7,8)","UWXNEBLQDNYFMR-UHFFFAOYSA-N","?","20","potentiometric","a/apparent","?","acidic",6.64
"10259","SC1(C(=O)NC(C1)=O)","OC1=NC(=O)CC1S","InChI=1S/C4H5NO2S/c6-3-1-2(8)4(7)5-3/h2,8H,1H2,(H,5,6,7)","PCLITYPZCQBLAC-UHFFFAOYSA-N","?",,"potentiometric","a/apparent","?","acidic",6.65
"16783","ClC1(=C(Cl)C(OCC(=O)OCC)=CC=C1S(=O)(=O)C2(=CC(=C(O)C=C2)C[NH3+]))","CCOC(O)=COC1=CC=C(C(Cl)=C1Cl)S(=O)(=O)C1C=C(CN)C(O)=CC=1","InChI=1S/C17H17Cl2NO6S/c1-2-25-15(22)9-26-13-5-6-14(17(19)16(13)18)27(23,24)11-3-4-12(21)10(7-11)8-20/h3-7,9,21-22H,2,8,20H2,1H3","ISKYUKBAMUFBES-UHFFFAOYSA-N","?","25","spectrophotometric","a1/apparent","OH","acidic",6.67
"12137","O=[N+]([O-])C1(=CC(=CC=C1)C([N+](=O)[O-])C)","CC(C1C=C(C=CC=1)[N+]([O-])=O)[N+]([O-])=O","InChI=1S/C8H8N2O4/c1-6(9(11)12)7-3-2-4-8(5-7)10(13)14/h2-6H,1H3","MGCIFWVBWIHWAT-UHFFFAOYSA-N","?","25","spectrophotometric","a1/apparent","?","acidic",6.67
"13491","[Br]C1(=C(O)C(=O)C=CC=C1C(C)C)","CC(C)C1=CC=CC(=O)C(O)=C1Br","InChI=1S/C10H11BrO2/c1-6(2)7-4-3-5-8(12)10(13)9(7)11/h3-6H,1-2H3,(H,12,13)","OKRVWQLRBOUFKB-UHFFFAOYSA-N","?","25","potentiometric","a/thermodynamic","?","acidic",6.68
"10359","O=C(C(C)C)CC=O","CC(C)C(O)=CC=O","InChI=1S/C6H10O2/c1-5(2)6(8)3-4-7/h3-5,8H,1-2H3","BJQZUHDNYBSUDR-UHFFFAOYSA-N","?","25","spectrophotometric","a1/apparent","?","acidic",6.68
"14849","O=C(O)C1(=C(NN=C(C#N)C#N)C=CC=C1)","N#CC(C#N)N=NC1C=CC=CC=1C(O)=O","InChI=1S/C10H6N4O2/c11-5-7(6-12)13-14-9-4-2-1-3-8(9)10(15)16/h1-4,7H,(H,15,16)","FDCSZMOHOIBWGW-UHFFFAOYSA-N","?","25","spectrophotometric","a1/apparent","?","acidic",6.7
"15485","OC=1(N(N=C(C=1CCCCCCCCCC)C2(=CC=CC=C2))C3(=CC=CC=C3))","CCCCCCCCCCC1=C(O)N(N=C1C1C=CC=CC=1)C1C=CC=CC=1","InChI=1S/C25H32N2O/c1-2-3-4-5-6-7-8-15-20-23-24(21-16-11-9-12-17-21)26-27(25(23)28)22-18-13-10-14-19-22/h9-14,16-19,28H,2-8,15,20H2,1H3","XIYPEWLEZULPHB-UHFFFAOYSA-N","?",,"potentiometric","a/apparent","?","acidic",6.7
"17315","O=C1(NOCC1)","OC1CCON=1","InChI=1S/C3H5NO2/c5-3-1-2-6-4-3/h1-2H2,(H,4,5)","QXDOFVVNXBGLKK-UHFFFAOYSA-N","?",,"potentiometric","a/apparent","?","acidic",6.7
"11284","S1(=O)(=O)(N=CNC2(=C1C=NC=C2))","O=S1(=O)N=CNC2C=CN=CC1=2","InChI=1S/C6H5N3O2S/c10-12(11)6-3-7-2-1-5(6)8-4-9-12/h1-4H,(H,8,9)","QSZUXEXDOYFOBI-UHFFFAOYSA-N","?","25",,"a1/apparent","?","acidic",6.71
"15152","O=[N+]([O-])C1(=C(O)C=CC(=C1)C2(=CC=CC=C2))","[O-][N+](=O)C1C=C(C=CC=1O)C1C=CC=CC=1","InChI=1S/C12H9NO3/c14-12-7-6-10(8-11(12)13(15)16)9-4-2-1-3-5-9/h1-8,14H","JDDNJJBXFOLPKX-UHFFFAOYSA-N","?","25","spectrophotometric","a1/apparent","?","acidic",6.73
"15837","OC=1(N(N=C(C=1CC2(=CC=CC=C2))C3(=CC=CC=C3))C4(CC[NH+](C)CC4))","CN1CCC(CC1)N1N=C(C2C=CC=CC=2)C(CC2C=CC=CC=2)=C1O","InChI=1S/C22H25N3O/c1-24-14-12-19(13-15-24)25-22(26)20(16-17-8-4-2-5-9-17)21(23-25)18-10-6-3-7-11-18/h2-11,19,26H,12-16H2,1H3","VLAPQJBAECXKRC-UHFFFAOYSA-N","?",,"potentiometric","a1/apparent","?","acidic",6.73
"12116","N#CC(=NNC1(=CC=C(C)C=C1))C#N","CC1=CC=C(C=C1)N=NC(C#N)C#N","InChI=1S/C10H8N4/c1-8-2-4-9(5-3-8)13-14-10(6-11)7-12/h2-5,10H,1H3","PVMNLJXFLNGWDN-UHFFFAOYSA-N","?","25","mean from 2","a1/apparent","?","acidic",6.75
"14628","N#CC(=NNC1(=C(C=CC(=C1)C)C))C#N","CC1=CC(N=NC(C#N)C#N)=C(C)C=C1","InChI=1S/C11H10N4/c1-8-3-4-9(2)11(5-8)15-14-10(6-12)7-13/h3-5,10H,1-2H3","KUVLTQSSNHTLGP-UHFFFAOYSA-N","?","25","mean from 2","a1/apparent","?","acidic",6.75
"11865","O=[N+]([O-])C([N+](=O)[O-])C(C)C","CC(C)C([N+]([O-])=O)[N+]([O-])=O","InChI=1S/C4H8N2O4/c1-3(2)4(5(7)8)6(9)10/h3-4H,1-2H3","ZVYBQTMBHLZBGE-UHFFFAOYSA-N","?",,"potentiometric","a/thermodynamic","?","acidic",6.75
"13468","O=NC1(=C(O)C=CC2(=C1N=CN2C))","CN1C=NC2C(N=O)=C(O)C=CC1=2","InChI=1S/C8H7N3O2/c1-11-4-9-7-5(11)2-3-6(12)8(7)10-13/h2-4,12H,1H3","UGXKEMXRIUJJDK-UHFFFAOYSA-N","?","20","potentiometric","a2/apparent","?","acidic",6.76
"11090","ONC=1(C=2(C(N=CC=1)=CC=CC=2))","ONC1=CC=NC2=CC=CC=C21","InChI=1S/C9H8N2O/c12-11-9-5-6-10-8-4-2-1-3-7(8)9/h1-6,12H,(H,10,11)","UPENJLLEQPCGBD-UHFFFAOYSA-N","?","25","mean from 2","a1/apparent","N-O","acidic",6.76
"13044","O=CC1(=C(O)C=NC=C1)","OC1C=NC=CC=1C=O","InChI=1S/C6H5NO2/c8-4-5-1-2-7-3-6(5)9/h1-4,9H","NVLPDIRQWJSXLZ-UHFFFAOYSA-N","?","20","spectrophotometric","a2/apparent","?","acidic",6.77
"17041","O=[N+]([O-])C=2(C=1(C(=NC(C)=CC=1)C(O)=CC=2))","CC1=CC=C2C(=N1)C(O)=CC=C2[N+]([O-])=O","InChI=1S/C10H8N2O3/c1-6-2-3-7-8(12(14)15)4-5-9(13)10(7)11-6/h2-5,13H,1H3","XYPACLZTPMHPLB-UHFFFAOYSA-N","?","20","potentiometric","a/thermodynamic","?","acidic",6.78
"15709","S(=O)(=O)(NC1(=CC=C(C#N)C=C1))C2(=CC=CC=C2)","N#CC1C=CC(=CC=1)NS(=O)(=O)C1C=CC=CC=1","InChI=1S/C13H10N2O2S/c14-10-11-6-8-12(9-7-11)15-18(16,17)13-4-2-1-3-5-13/h1-9,15H","MFGPRXPCLKNJJM-UHFFFAOYSA-N","?","25","mean from 4","a1/apparent","NH","acidic",6.78
"17830","OC1(=CN=CN=C1)","OC1C=NC=NC=1","InChI=1S/C4H4N2O/c7-4-1-5-3-6-2-4/h1-3,7H","LTXJLQINBYSQFU-UHFFFAOYSA-N","?","20","potentiometric","a2/apparent","?","acidic",6.78
"10480","IC(S(=O)(=O)N)(F)F","NS(=O)(=O)C(F)(F)I","InChI=1S/CH2F2INO2S/c2-1(3,4)8(5,6)7/h(H2,5,6,7)","LPMGOYBTLYDJDA-UHFFFAOYSA-N","?","25",,"a1/apparent","?","acidic",6.79
"16267","O=C(OC)C1(=C(C(O)=C(O)C(=C1)O)C[NH+](C)C)","COC(=O)C1=CC(O)=C(O)C(O)=C1CN(C)C","InChI=1S/C11H15NO5/c1-12(2)5-7-6(11(16)17-3)4-8(13)10(15)9(7)14/h4,13-15H,5H2,1-3H3","XGUZPDXLNAXJOD-UHFFFAOYSA-N","?","25","potentiometric","a1/apparent","?","acidic",6.8
"14920","O=C(ONC(=O)CC)C=CC1(=CC=CC=C1)","CCC(O)=NOC(=O)C=CC1C=CC=CC=1","InChI=1S/C12H13NO3/c1-2-11(14)13-16-12(15)9-8-10-6-4-3-5-7-10/h3-9H,2H2,1H3,(H,13,14)","FBVBKIJLKRRMNK-UHFFFAOYSA-N","?","25","potentiometric","a1/apparent","?","acidic",6.8
"15930","ClC4(=CC=3(N=C(C=1(C(=O)OC=2(C=C(O)C=CC=2(C=1))))OC=3C=C4))","OC1=CC2OC(=O)C(=CC=2C=C1)C1=NC2C=C(Cl)C=CC=2O1","InChI=1S/C16H8ClNO4/c17-9-2-4-13-12(6-9)18-15(21-13)11-5-8-1-3-10(19)7-14(8)22-16(11)20/h1-7,19H","WQSQXWWTGJPUGC-UHFFFAOYSA-N","?","22",,"a1/thermodynamic","OH","acidic",6.8
"16799","S(=O)(=O)(OC4(=C3(OC(C=1(C(=O)OC=2(C=C(O)C=CC=2(C=1))))=NC3=CC(=C4)C)))[O-]","CC1=CC2N=C(OC=2C(=C1)OS(O)(=O)=O)C1=CC2C=CC(O)=CC=2OC1=O","InChI=1S/C17H11NO8S/c1-8-4-12-15(14(5-8)26-27(21,22)23)25-16(18-12)11-6-9-2-3-10(19)7-13(9)24-17(11)20/h2-7,19H,1H3,(H,21,22,23)","MMEVYNMLWYRSSA-UHFFFAOYSA-N","?","22",,"a1/thermodynamic","OH","acidic",6.8
"12817","ClC1(=C(O)C(Cl)=CC=C1)","OC1C(Cl)=CC=CC=1Cl","InChI=1S/C6H4Cl2O/c7-4-2-1-3-5(8)6(4)9/h1-3,9H","HOLHYSJJBXSLMV-UHFFFAOYSA-N","?","25","mean from 2","a1/apparent","O-H","acidic",6.8
"10497","O=C(ONC(=O)C)C","C/C(/O)=N\OC(=C)O","InChI=1S/C4H7NO3/c1-3(6)5-8-4(2)7/h7H,2H2,1H3,(H,5,6)","SYGSMIUBEDJJJH-UHFFFAOYSA-N","?","25","potentiometric","a1/apparent","H(1+)","acidic",6.81
"10774","O=[N+]([O-])C1(=CC(OC)=C(O)C=C1)","COC1C=C(C=CC=1O)[N+]([O-])=O","InChI=1S/C7H7NO4/c1-12-7-4-5(8(10)11)2-3-6(7)9/h2-4,9H,1H3","IZLVFLOBTPURLP-UHFFFAOYSA-N","?","25","spectrophotometric","a/thermodynamic","?","acidic",6.83
"16427","O=C2(OC1(=C(C=CC(=C1)O)C=C2C=3(OC=4(C=CC=CC=4(N=3)))))","OC1=CC2OC(=O)C(=CC=2C=C1)C1=NC2C=CC=CC=2O1","InChI=1S/C16H9NO4/c18-10-6-5-9-7-11(16(19)21-14(9)8-10)15-17-12-3-1-2-4-13(12)20-15/h1-8,18H","IKLXGICISXJRPJ-UHFFFAOYSA-N","?","22",,"a1/thermodynamic","OH","acidic",6.84
"12769","O=C1(C(O)=CC=CC=C1)","OC1=CC=CC=CC1=O","InChI=1S/C7H6O2/c8-6-4-2-1-3-5-7(6)9/h1-5H,(H,8,9)","MDYOLVRUBBJPFM-UHFFFAOYSA-N","?","24","mean from 3","a1/apparent","?","acidic",6.87
"13978","N#CC1(=NC=NC2(=C1NC=N2))","N#CC1=NC=NC2N=CNC=21","InChI=1S/C6H3N5/c7-1-4-5-6(10-2-8-4)11-3-9-5/h2-3H,(H,8,9,10,11)","NHYQQYMSESLQDX-UHFFFAOYSA-N","?",,"mean from 2","a2/apparent","?","acidic",6.88
"11172","O[N+]1(=C([O-])C=CC=2(C1=CC=CC=2))","OC1C=CC2=CC=CC=C2[N+]=1O","InChI=1S/C9H7NO2/c11-9-6-5-7-3-1-2-4-8(7)10(9)12/h1-6,12H/p+1","NFNIRGPPIRJASP-UHFFFAOYSA-O","?","20","potentiometric","a/apparent","?","acidic",6.88
"15055","O(C1(=NC(=NC(=C1)C)N2(N=C(C)C=C2O)))C","CC1C=C(O)N(N=1)C1N=C(C=C(C)N=1)OC","InChI=1S/C10H12N4O2/c1-6-4-8(16-3)12-10(11-6)14-9(15)5-7(2)13-14/h4-5,15H,1-3H3","XAOVWQZORQBLDK-UHFFFAOYSA-N","?","20","potentiometric","a1/apparent","?","acidic",6.9
"15176","ClCC(=O)NC=2(SC(C1(=CC=CC=C1))=NN=2)","O/C(/CCl)=N/C1=NN=C(S1)C1C=CC=CC=1","InChI=1S/C10H8ClN3OS/c11-6-8(15)12-10-14-13-9(16-10)7-4-2-1-3-5-7/h1-5H,6H2,(H,12,14,15)","CVISCSFOMGKKJR-UHFFFAOYSA-N","?",,"spectrophotometric","a/apparent","?","acidic",6.9
"12118","N#CC(=NNC1(=C(C=CC=C1)C))C#N","CC1C=CC=CC=1N=NC(C#N)C#N","InChI=1S/C10H8N4/c1-8-4-2-3-5-10(8)14-13-9(6-11)7-12/h2-5,9H,1H3","PGANELMIKKGCBI-UHFFFAOYSA-N","?","25","spectrophotometric","a1/apparent","?","acidic",6.9
"13247","O=C2(OC1(=C(O)C(O)=CC=C1C=C2))","OC1=CC=C2C=CC(=O)OC2=C1O","InChI=1S/C9H6O4/c10-6-3-1-5-2-4-7(11)13-9(5)8(6)12/h1-4,10,12H","ATEFPOUAMCWAQS-UHFFFAOYSA-N","?","20","mean from 2","a1/apparent","OH","acidic",6.9
"16593","S(=O)(=O)(NC1(=CC([N+](=O)[O-])=CC=C1))C2(=CC=CC=C2)","[O-][N+](=O)C1C=C(C=CC=1)NS(=O)(=O)C1C=CC=CC=1","InChI=1S/C12H10N2O4S/c15-14(16)11-6-4-5-10(9-11)13-19(17,18)12-7-2-1-3-8-12/h1-9,13H","CWBLFCFUSMBFSO-UHFFFAOYSA-N","?","22","mean from 3","a1/apparent","NH","acidic",6.91
"16824","ClC1(=C(O)C(=C(OC)C(=C1)CC)C(=O)NCC2([NH+](CCC2)CC))","COC1C(=C(O)C(Cl)=CC=1CC)C(=O)NCC1CCCN1CC","InChI=1S/C17H25ClN2O3/c1-4-11-9-13(18)15(21)14(16(11)23-3)17(22)19-10-12-7-6-8-20(12)5-2/h9,12,21H,4-8,10H2,1-3H3,(H,19,22)","KSUCKSLJGXQWOX-UHFFFAOYSA-N","?","25","potentiometric","a1/apparent","OH","acidic",6.91
"11105","OC=2(C1(=[NH+]C=CC(=C1C=CC=2)N))","NC1=CC=NC2=C(O)C=CC=C21","InChI=1S/C9H8N2O/c10-7-4-5-11-9-6(7)2-1-3-8(9)12/h1-5,12H,(H2,10,11)","BSAWDWUYBRFYFY-UHFFFAOYSA-N","?","20",,"a1/apparent","?","acidic",6.91
"15623","O=[N+]([O-])C1(=CC(=C(O)C(=C1)C(C)(C)C)C(C)(C)C)","CC(C)(C)C1=CC(=CC(=C1O)C(C)(C)C)[N+]([O-])=O","InChI=1S/C14H21NO3/c1-13(2,3)10-7-9(15(17)18)8-11(12(10)16)14(4,5)6/h7-8,16H,1-6H3","FCGKUUOTWLWJHE-UHFFFAOYSA-N","?","25","spectrophotometric","a1/apparent","?","acidic",6.92
"16648","S(=O)(=O)(NC1(=CC=C(C(=O)C)C=C1))C2(=CC=CC=C2)","C=C(O)C1C=CC(=CC=1)NS(=O)(=O)C1C=CC=CC=1","InChI=1S/C14H13NO3S/c1-11(16)12-7-9-13(10-8-12)15-19(17,18)14-5-3-2-4-6-14/h2-10,15-16H,1H2","JVAUADNCERHKOU-UHFFFAOYSA-N","?","20","potentiometric","a/apparent","?","acidic",6.94
"11286","S1(=O)(=O)(N=CNC=2(C1=NC=CC=2))","O=S1(=O)N=CNC2=CC=CN=C12","InChI=1S/C6H5N3O2S/c10-12(11)6-5(8-4-9-12)2-1-3-7-6/h1-4H,(H,8,9)","IVGANXKJAAGFML-UHFFFAOYSA-N","?","25",,"a1/apparent","?","acidic",6.94
"15274","O=C([O-])C1(=C(C(O)=C(O)C(=C1C[NH+](C)C)O)C[NH+](C)C)","CN(C)CC1=C(C(CN(C)C)=C(O)C(O)=C1O)C(O)=O","InChI=1S/C13H20N2O5/c1-14(2)5-7-9(13(19)20)8(6-15(3)4)11(17)12(18)10(7)16/h16-18H,5-6H2,1-4H3,(H,19,20)","MBTCBJVPKPJHJK-UHFFFAOYSA-N","?","25","potentiometric","a1/apparent","?","acidic",6.95
"12078","O=C2(N1(N=NN=C1C=CN2))","O=C1N=CCC2=NN=NN21","InChI=1S/C4H3N5O/c10-4-5-2-1-3-6-7-8-9(3)4/h2H,1H2","CJHIOIXEZMFJAY-UHFFFAOYSA-N","?",,"spectrophotometric","a/apparent","?","acidic",6.95
"16208","ClC2(=C(S(=O)(=O)NC=1(SC=CN=1))C=CC(=C2)N)","NC1=CC(Cl)=C(C=C1)S(=O)(=O)NC1=NC=CS1","InChI=1S/C9H8ClN3O2S2/c10-7-5-6(11)1-2-8(7)17(14,15)13-9-12-3-4-16-9/h1-5H,11H2,(H,12,13)","CDCRCMLJYUDHPH-UHFFFAOYSA-N","?",,"potentiometric","a/apparent","?","acidic",6.95
"14697","FC(F)(F)C1(=CC(=CC=C1)C([N+](=O)[O-])C)","CC(C1C=C(C=CC=1)C(F)(F)F)[N+]([O-])=O","InChI=1S/C9H8F3NO2/c1-6(13(14)15)7-3-2-4-8(5-7)9(10,11)12/h2-6H,1H3","ULTDWIQQGZSQEH-UHFFFAOYSA-N","?","25","spectrophotometric","a1/apparent","?","acidic",6.96
"15789","S(=O)(=O)(NC=1(SC(C)=C(N=1)C))C2(=CC=C(N)C=C2)","CC1SC(NS(=O)(=O)C2C=CC(N)=CC=2)=NC=1C","InChI=1S/C11H13N3O2S2/c1-7-8(2)17-11(13-7)14-18(15,16)10-5-3-9(12)4-6-10/h3-6H,12H2,1-2H3,(H,13,14)","YNIUECIPKQFHAX-UHFFFAOYSA-N","?","25","potentiometric","a/apparent","?","acidic",6.97
"16196","S(=O)(=O)(NC=1(SC=CN=1))C2(=CC(=C(N)C=C2)C)","CC1C=C(C=CC=1N)S(=O)(=O)NC1=NC=CS1","InChI=1S/C10H11N3O2S2/c1-7-6-8(2-3-9(7)11)17(14,15)13-10-12-4-5-16-10/h2-6H,11H2,1H3,(H,12,13)","MGILFWXNSNMZJG-UHFFFAOYSA-N","?",,"potentiometric","a/apparent","?","acidic",7.0
"16411","S(=O)(=O)(NC2(=NN(C1(=C([N+](=O)[O-])C=CC=C1))C=C2))C3(=CC=C(N)C=C3)","NC1C=CC(=CC=1)S(=O)(=O)NC1C=CN(N=1)C1C=CC=CC=1[N+]([O-])=O","InChI=1S/C15H13N5O4S/c16-11-5-7-12(8-6-11)25(23,24)18-15-9-10-19(17-15)13-3-1-2-4-14(13)20(21)22/h1-10H,16H2,(H,17,18)","YYXYMGJUEHVSBH-UHFFFAOYSA-N","?","25","spectrophotometric","a1/apparent","?","acidic",7.0