"Molecule name","OriginalSmiles","Canonical_QSARr","InChI_Code_QSARr","InChI Key_QSARr","Salt_Solvent (Concatenate)","temp","method","type","group","basicOrAcidic","pKa"
"13418","IC2(=C(O)C1(=NC=CC=C1C(=C2)Cl))","OC1=C(I)C=C(Cl)C2=CC=CN=C21","InChI=1S/C9H5ClINO/c10-6-4-7(11)9(13)8-5(6)2-1-3-12-8/h1-4,13H","QCDFBFJGMNKBDO-UHFFFAOYSA-N","?","25","spectrophotometric","a2/apparent","?","acidic",7.9
"16164","ClC2(=CC=C(NS(=O)(=O)C1(=CC=CC=C1))C=C2)","O=S(=O)(NC1C=CC(Cl)=CC=1)C1C=CC=CC=1","InChI=1S/C12H10ClNO2S/c13-10-6-8-11(9-7-10)14-17(15,16)12-4-2-1-3-5-12/h1-9,14H","ANRCRHLXUCJAKV-UHFFFAOYSA-N","?","23","mean from 5","a1/apparent","NH","acidic",7.91
"14269","O=CC1(=C(O)C(OC)=CC=C1)","COC1=CC=CC(C=O)=C1O","InChI=1S/C8H8O3/c1-11-7-4-2-3-6(5-9)8(7)10/h2-5,10H,1H3","JJVNINGBHGBWJH-UHFFFAOYSA-N","?","25","spectrophotometric","a/thermodynamic","?","acidic",7.91
"14089","FC(F)(F)C(F)(F)C(=O)NN","NNC(=O)C(F)(F)C(F)(F)F","InChI=1S/C3H3F5N2O/c4-2(5,1(11)10-9)3(6,7)8/h9H2,(H,10,11)","ZJTZZFRCOPTVDW-UHFFFAOYSA-N","?","25",,"a1/apparent","NH","acidic",7.92
"17699","SCC[NH2+]CCC","CCCNCCS","InChI=1S/C5H13NS/c1-2-3-6-4-5-7/h6-7H,2-5H2,1H3","RVHUIQSWHPZCCP-UHFFFAOYSA-N","?","25","potentiometric","a1/apparent","SH","acidic",7.92
"13860","OC2(=CC1(=NC=CN=C1C=C2))","OC1=CC2=NC=CN=C2C=C1","InChI=1S/C8H6N2O/c11-6-1-2-7-8(5-6)10-4-3-9-7/h1-5,11H","RQPVXTQTNVVKEJ-UHFFFAOYSA-N","?","20","potentiometric","a2/apparent","?","acidic",7.92
"12139","O=[N+]([O-])C1(=CC=C(C(=O)N(O)C)C=C1)","CN(O)C(=O)C1=CC=C(C=C1)[N+]([O-])=O","InChI=1S/C8H8N2O4/c1-9(12)8(11)6-2-4-7(5-3-6)10(13)14/h2-5,12H,1H3","ZNDZIKKLULYHLG-UHFFFAOYSA-N","?","27","mean from 2","a1/apparent","N(CH3)O-H","acidic",7.92
"11375","O=C1(C(O)=C(C=CC=C1)C)","CC1C=CC=CC(=O)C=1O","InChI=1S/C8H8O2/c1-6-4-2-3-5-7(9)8(6)10/h2-5H,1H3,(H,9,10)","WQCFNSJTIWJUMV-UHFFFAOYSA-N","?","25","potentiometric","a/thermodynamic","?","acidic",7.92
"11604","O=C1(C(=NO)CCC1=NO)","O=C1C(CCC1N=O)N=O","InChI=1S/C5H6N2O3/c8-5-3(6-9)1-2-4(5)7-10/h3-4H,1-2H2","BOPODFHHGSUVIK-UHFFFAOYSA-N","?","30","potentiometric","a1/apparent","?","acidic",7.95
"13864","OC2(=CC=1(C(=CN=NC=1)C=C2))","OC1=CC2=CN=NC=C2C=C1","InChI=1S/C8H6N2O/c11-8-2-1-6-4-9-10-5-7(6)3-8/h1-5,11H","LWCGXQKEMUSFSB-UHFFFAOYSA-N","?","20",,"a2/apparent","?","acidic",7.95
"10065","SC1(=NN=C(N1N)C)","CC1=NN=C(S)N1N","InChI=1S/C3H6N4S/c1-2-5-6-3(8)7(2)4/h4H2,1H3,(H,6,8)","KBKNKJFPVHUXCW-UHFFFAOYSA-N","?","30","potentiometric","a1/apparent","?","acidic",7.97
"16162","ClC2(=CC=C(S(=O)(=O)NC1(=CC=CC=C1))C=C2)","O=S(=O)(NC1C=CC=CC=1)C1C=CC(Cl)=CC=1","InChI=1S/C12H10ClNO2S/c13-10-6-8-12(9-7-10)17(15,16)14-11-4-2-1-3-5-11/h1-9,14H","ISOSXVUVKUIPHF-UHFFFAOYSA-N","?","20","spectrophotometric","a/apparent","?","acidic",7.98
"17700","SCC[N+](C)(C)C","C[N+](C)(C)CCS","InChI=1S/C5H13NS/c1-6(2,3)4-5-7/h4-5H2,1-3H3/p+1","VFUGTBZQGUVGEX-UHFFFAOYSA-O","?","25","mean from 2","a1/apparent","SH","acidic",7.98
"13588","O=C1(NC(=O)C(C(C)(C)C)C(N1)=O)","CC(C)(C)C1C(O)=NC(=O)NC1=O","InChI=1S/C8H12N2O3/c1-8(2,3)4-5(11)9-7(13)10-6(4)12/h4H,1-3H3,(H2,9,10,11,12,13)","YPORGWCGCHDBLQ-UHFFFAOYSA-N","?","25","mean from 2","a1/apparent","CH","acidic",7.98
"10880","O=[N+]([O-])C1(=C(O)C(=CC(=C1)C)C)","CC1=CC(C)=CC(=C1O)[N+]([O-])=O","InChI=1S/C8H9NO3/c1-5-3-6(2)8(10)7(4-5)9(11)12/h3-4,10H,1-2H3","KJRCHILWKQLEBC-UHFFFAOYSA-N","?","25","mean from 2","a1/apparent","?","acidic",7.98
"17022","OC=1(NN=C(C=1CCC)C2(=CC=CC=C2))","CCCC1=C(O)NN=C1C1C=CC=CC=1","InChI=1S/C12H14N2O/c1-2-6-10-11(13-14-12(10)15)9-7-4-3-5-8-9/h3-5,7-8H,2,6H2,1H3,(H2,13,14,15)","UUSSAMXIQHAHCZ-UHFFFAOYSA-N","?",,"potentiometric","a/apparent","?","acidic",8.0
"16245","ClC1(=CC=C(C(=O)NC(=S)N(CC)CC)C=C1)","CCN(CC)C(=S)NC(=O)C1C=CC(Cl)=CC=1","InChI=1S/C12H15ClN2OS/c1-3-15(4-2)12(17)14-11(16)9-5-7-10(13)8-6-9/h5-8H,3-4H2,1-2H3,(H,14,16,17)","HEWDLGIDGRUCHT-UHFFFAOYSA-N","?","25","spectrophotometric","a1/apparent","?","acidic",8.0
"16811","S=C3(N1(C(C(C)(C)SC1C(NC(=O)CC2(=CC=CC=C2))C(=O)OC)C(N3)=O))","CC1(C)SC(C(=NC(O)=CC2C=CC=CC=2)C(O)OC)N2C1C(O)=NC2=S","InChI=1S/C18H21N3O4S2/c1-18(2)13-14(23)20-17(26)21(13)15(27-18)12(16(24)25-3)19-11(22)9-10-7-5-4-6-8-10/h4-9,13,15-16,22,24H,1-3H3,(H,20,23,26)","ORMGYXKTMBQVHV-UHFFFAOYSA-N","?",,"potentiometric","a/apparent","?","acidic",8.0
"16397","OC=1(N(N=C(C=1CCCCCCC)C2(=CC=CC=C2))C3(=CC=CC=C3))","CCCCCCCC1=C(O)N(N=C1C1C=CC=CC=1)C1C=CC=CC=1","InChI=1S/C22H26N2O/c1-2-3-4-5-12-17-20-21(18-13-8-6-9-14-18)23-24(22(20)25)19-15-10-7-11-16-19/h6-11,13-16,25H,2-5,12,17H2,1H3","XDRWOCPVVHNFRT-UHFFFAOYSA-N","?",,"potentiometric","a/apparent","?","acidic",8.0
"10404","O=C(N)C(N)C(C)C","CC(C)C(=N)C(N)O","InChI=1S/C5H12N2O/c1-3(2)4(6)5(7)8/h3,5-6,8H,7H2,1-2H3","LZMJIJCMOBBIRE-UHFFFAOYSA-N","?",,"potentiometric","a/apparent","NH3+","acidic",8.0
"11789","FC1(=C(O)C=C(C[NH3+])C=C1)","NCC1C=C(O)C(F)=CC=1","InChI=1S/C7H8FNO/c8-6-2-1-5(4-9)3-7(6)10/h1-3,10H,4,9H2","MITDKCUPBXYTCM-UHFFFAOYSA-N","?","25","potentiometric","a1/apparent","?","acidic",8.0
"15676","S(SC=1(C(=O)NC(=O)NC=1))C=2(C(=O)NC(=O)NC=2)","O=C1NC(=O)C(C=N1)SSC1C=NC(=O)NC1=O","InChI=1S/C8H6N4O4S2/c13-5-3(1-9-7(15)11-5)17-18-4-2-10-8(16)12-6(4)14/h1-4H,(H,11,13,15)(H,12,14,16)","RCFZSHVNPDEZPD-UHFFFAOYSA-N","?",,"potentiometric","a/apparent","?","acidic",8.0
"14241","O=C1(C(O)=C(OC)C=CC=C1)","COC1C=CC=CC(=O)C=1O","InChI=1S/C8H8O3/c1-11-7-5-3-2-4-6(9)8(7)10/h2-5H,1H3,(H,9,10)","MSUIQNOEASGXHI-UHFFFAOYSA-N","?","25","potentiometric","a/apparent","?","acidic",8.0
"16959","O=C2(OC1(=C(C=C(CC)C(=C1)O)C(=C2)C))","CC1=CC(=O)OC2C=C(O)C(CC)=CC1=2","InChI=1S/C12H12O3/c1-3-8-5-9-7(2)4-12(14)15-11(9)6-10(8)13/h4-6,13H,3H2,1-2H3","QHDTWGXIYHPUKI-UHFFFAOYSA-N","?","25","spectrophotometric","a/apparent","?","acidic",8.01
"16950","O=C(C1(=CC=C(O)C=C1))C2(=CC=CC=C2)","OC1C=CC(=CC=1)C(=O)C1C=CC=CC=1","InChI=1S/C13H10O2/c14-12-8-6-11(7-9-12)13(15)10-4-2-1-3-5-10/h1-9,14H","NPFYZDNDJHZQKY-UHFFFAOYSA-N","?","25","mean from 2","a1/apparent","OH","acidic",8.01
"12815","[Br]C1(=CC([Br])=CC(=C1)O)","OC1C=C(Br)C=C(Br)C=1","InChI=1S/C6H4Br2O/c7-4-1-5(8)3-6(9)2-4/h1-3,9H","PZFMWYNHJFZBPO-UHFFFAOYSA-N","?",,"potentiometric","a/apparent","?","acidic",8.01
"17407","O=C(N)C(N)C","CC(=N)C(N)O","InChI=1S/C3H8N2O/c1-2(4)3(5)6/h3-4,6H,5H2,1H3","MEHLJIACXIDEHM-UHFFFAOYSA-N","?",,"potentiometric","a/apparent","NH3%+&","acidic",8.02
"17560","SCC[NH2+]C","CNCCS","InChI=1S/C3H9NS/c1-4-2-3-5/h4-5H,2-3H2,1H3","NZSNWIOVGALACV-UHFFFAOYSA-N","?","25","potentiometric","a1/apparent","SH","acidic",8.02
"12293","FC(F)(F)C(F)(F)C(F)(F)C(=O)NN","NNC(=O)C(F)(F)C(F)(F)C(F)(F)F","InChI=1S/C4H3F7N2O/c5-2(6,1(14)13-12)3(7,8)4(9,10)11/h12H2,(H,13,14)","OFXVRTCUSIFORW-UHFFFAOYSA-N","?","25",,"a1/apparent","NH","acidic",8.02
"10692","OC1(=C(C(=CN=C1C)CO)C[NH3+])","CC1N=CC(CO)=C(CN)C=1O","InChI=1S/C8H12N2O2/c1-5-8(12)7(2-9)6(4-11)3-10-5/h3,11-12H,2,4,9H2,1H3","NHZMQXZHNVQTQA-UHFFFAOYSA-N","?","24","mean from 4","a2/apparent","?","acidic",8.02
"10867","ClC1(=CC(=C(O)C=C1)C[NH+](C)C)","CN(C)CC1=CC(Cl)=CC=C1O","InChI=1S/C9H12ClNO/c1-11(2)6-7-5-8(10)3-4-9(7)12/h3-5,12H,6H2,1-2H3","WPEGHIRPYPPYDO-UHFFFAOYSA-N","?","25","mean from 3","a1/apparent","O-H","acidic",8.02
"14452","O=C(NC)C1(=C(O)C=CC=C1)","CNC(=O)C1C=CC=CC=1O","InChI=1S/C8H9NO2/c1-9-8(11)6-4-2-3-5-7(6)10/h2-5,10H,1H3,(H,9,11)","BCKXMQIYWWTZDP-UHFFFAOYSA-N","?","25","potentiometric","a1/apparent","?","acidic",8.03
"15693","ON=CC2(=CC=[N+](CCCN1(C=[N+](C)C=C1))C=C2)","C[N+]1=CN(CCC[N+]2C=CC(CN=O)=CC=2)C=C1","InChI=1S/C13H18N4O/c1-15-9-10-17(12-15)6-2-5-16-7-3-13(4-8-16)11-14-18/h3-4,7-10,12H,2,5-6,11H2,1H3/q+2","LYDZNNUAYDCRPN-UHFFFAOYSA-N","?","25","potentiometric","a1/apparent","NOH","acidic",8.05
"17535","O=C(N)CN","NC(O)C=N","InChI=1S/C2H6N2O/c3-1-2(4)5/h1-3,5H,4H2","NIDUALUBDSHDHP-UHFFFAOYSA-N","?","24","mean from 4","a1/apparent","?","acidic",8.05
"17413","SCC(=O)NN","N/N=C(/O)\CS","InChI=1S/C2H6N2OS/c3-4-2(5)1-6/h6H,1,3H2,(H,4,5)","VLERMNIUDRUNQO-UHFFFAOYSA-N","?","25","potentiometric","a/apparent","?","acidic",8.05
"14545","ON=CC1(=C(O)C=C(O)C=C1)","OC1=CC(O)=C(CN=O)C=C1","InChI=1S/C7H7NO3/c9-6-2-1-5(4-8-11)7(10)3-6/h1-3,9-10H,4H2","WUXHNAUNJLOYPD-UHFFFAOYSA-N","?","25","spectrophotometric","a1/apparent","?","acidic",8.05
"13941","OC=1(C=NC2(=CC=CC=C2(C=1)))","OC1=CC2=CC=CC=C2N=C1","InChI=1S/C9H7NO/c11-8-5-7-3-1-2-4-9(7)10-6-8/h1-6,11H","IQQDNMHUOLMLNJ-UHFFFAOYSA-N","?","20","potentiometric","a2/apparent","?","acidic",8.06
"12814","ClC1(=CC(Cl)=CC(=C1)O)","OC1C=C(Cl)C=C(Cl)C=1","InChI=1S/C6H4Cl2O/c7-4-1-5(8)3-6(9)2-4/h1-3,9H","VPOMSPZBQMDLTM-UHFFFAOYSA-N","?","25","mean from 4","a1/apparent","ArOH","acidic",8.07
"14447","O=C(N(O)C)C1(=CC=CC=C1)","CN(O)C(=O)C1C=CC=CC=1","InChI=1S/C8H9NO2/c1-9(11)8(10)7-5-3-2-4-6-7/h2-6,11H,1H3","DDSSLJHUWRMSSP-UHFFFAOYSA-N","?","25","mean from 2","a1/apparent","N(CH3)O-H","acidic",8.07
"14531","OC1(=CC([N+](C)(C)C)=CC=C1)","C[N+](C)(C)C1C=C(O)C=CC=1","InChI=1S/C9H13NO/c1-10(2,3)8-5-4-6-9(11)7-8/h4-7H,1-3H3/p+1","CSKWZSUBRGLJBC-UHFFFAOYSA-O","?","25","mean from 2","a1/apparent","?","acidic",8.07
"11886","SCC[NH+](C(C)C)C(C)C","CC(C)N(CCS)C(C)C","InChI=1S/C8H19NS/c1-7(2)9(5-6-10)8(3)4/h7-8,10H,5-6H2,1-4H3","IFZVKYXDCOHPOT-UHFFFAOYSA-N","?","17","mean from 2","b1/apparent","?","acidic",8.08
"17148","N3(=C2(N=C(C1(=CC=CC=C1))NC2=CN=C3))","C1N=CN=C2N=C(NC2=1)C1C=CC=CC=1","InChI=1S/C11H8N4/c1-2-4-8(5-3-1)10-14-9-6-12-7-13-11(9)15-10/h1-7H,(H,12,13,14,15)","ULWZFKSDBAAHEI-UHFFFAOYSA-N","?","20","potentiometric","a2/apparent","?","acidic",8.09
"13503","ClC1(=C(O)C(=CC(=C1)Cl)CCCC)","CCCCC1=CC(Cl)=CC(Cl)=C1O","InChI=1S/C10H12Cl2O/c1-2-3-4-7-5-8(11)6-9(12)10(7)13/h5-6,13H,2-4H2,1H3","CKQVBCJJXPMOPU-UHFFFAOYSA-N","?","25","spectrophotometric","a/apparent","?","acidic",8.1
"13662","OC1(=C(O)C=CC=C1C[N+](C)(C)C)","C[N+](C)(C)CC1=CC=CC(O)=C1O","InChI=1S/C10H15NO2/c1-11(2,3)7-8-5-4-6-9(12)10(8)13/h4-6H,7H2,1-3H3,(H-,12,13)/p+1","WVUCCYPTKSKWSY-UHFFFAOYSA-O","?","25","potentiometric","a1/apparent","?","acidic",8.1
"17574","[Br]NC(=O)C","C/C(/O)=N\Br","InChI=1S/C2H4BrNO/c1-2(5)4-3/h1H3,(H,4,5)","VBTQNRFWXBXZQR-UHFFFAOYSA-N","?","21","potentiometric","a1/apparent","?","acidic",8.1
"17363","O=C(OO)CC","CC=C(O)OO","InChI=1S/C3H6O3/c1-2-3(4)6-5/h2,4-5H,1H3","RCTBAXSXJSMBPW-UHFFFAOYSA-N","?","23","potentiometric","a/apparent","?","acidic",8.1
"17742","SCC(=O)N(C)C","CN(C)C(O)=CS","InChI=1S/C4H9NOS/c1-5(2)4(6)3-7/h3,6-7H,1-2H3","VXGBIIPVIJDKGG-UHFFFAOYSA-N","?","20","potentiometric","a/apparent","?","acidic",8.1
"12404","S(=O)(=O)([O-])C1(=CC(O)=C2(C=NNC2(=C1)))","OC1=CC(=CC2NN=CC1=2)S(O)(=O)=O","InChI=1S/C7H6N2O4S/c10-7-2-4(14(11,12)13)1-6-5(7)3-8-9-6/h1-3,10H,(H,8,9)(H,11,12,13)","ZXMIGFLOUOKPHT-UHFFFAOYSA-N","?","25","potentiometric","a/apparent","?","acidic",8.1
"15675","S(SCC1(NC(=O)NC1=O))CC2(NC(=O)NC2=O)","OC1NC(=O)N=C1CSSCC1=NC(=O)NC1O","InChI=1S/C8H10N4O4S2/c13-5-3(9-7(15)11-5)1-17-18-2-4-6(14)12-8(16)10-4/h5-6,13-14H,1-2H2,(H,11,15)(H,12,16)","TXLHAOFOSTUNHH-UHFFFAOYSA-N","?","20","potentiometric","a/apparent","?","acidic",8.1
"10572","ClC1(=C(O)C(=CC(=C1)Cl)CCC)","CCCC1=CC(Cl)=CC(Cl)=C1O","InChI=1S/C9H10Cl2O/c1-2-3-6-4-7(10)5-8(11)9(6)12/h4-5,12H,2-3H2,1H3","FUKPHBJLEDJLQG-UHFFFAOYSA-N","?",,"spectrophotometric","a/apparent","?","acidic",8.1
"16005","[N+]12(=C(C=CC=C1)C[N+]=3(C=CC=CC=3(C2)))","C1C2C=CC=C[N+]=2CC2C=CC=C[N+]=21","InChI=1S/C12H12N2/c1-3-7-13-10-12-6-2-4-8-14(12)9-11(13)5-1/h1-8H,9-10H2/q+2","HQVRMMIGKNUWOV-UHFFFAOYSA-N","?","298","spectrophotometric","a1/apparent","?","acidic",8.12
"16529","O=C3(OC2(=C(C=C(C1(C=CC(C)(C)CC1)(C))C(=C2)O)C=C3))","CC1(C)CCC(C)(C=C1)C1=CC2C=CC(=O)OC=2C=C1O","InChI=1S/C18H20O3/c1-17(2)6-8-18(3,9-7-17)13-10-12-4-5-16(20)21-15(12)11-14(13)19/h4-6,8,10-11,19H,7,9H2,1-3H3","TZIJCRYUQXPGEI-UHFFFAOYSA-N","?","20","potentiometric","a1/apparent","H of OH","acidic",8.12
"10868","FC1(=CC(=C(O)C=C1)C[NH+](C)C)","CN(C)CC1=CC(F)=CC=C1O","InChI=1S/C9H12FNO/c1-11(2)6-7-5-8(10)3-4-9(7)12/h3-5,12H,6H2,1-2H3","NEGVGBPSCVOSAI-UHFFFAOYSA-N","?","25","potentiometric","a1/apparent","OH","acidic",8.12
"15198","O=C(NCCC[NH+](CC=C)CC=C)C=NO","C=CCN(CC=C)CCCNC(=O)CN=O","InChI=1S/C11H19N3O2/c1-3-7-14(8-4-2)9-5-6-12-11(15)10-13-16/h3-4H,1-2,5-10H2,(H,12,15)","VSPYOASUXJWCQA-UHFFFAOYSA-N","?","25","potentiometric","a1/apparent","?","acidic",8.14
"17114","ClC1(=CC(=C(O)C=C1)C[NH+]2(CCCCC2))","OC1=CC=C(Cl)C=C1CN1CCCCC1","InChI=1S/C12H16ClNO/c13-11-4-5-12(15)10(8-11)9-14-6-2-1-3-7-14/h4-5,8,15H,1-3,6-7,9H2","GVAMPYVXAAFYCE-UHFFFAOYSA-N","?","25","spectrophotometric","a1/apparent","OH","acidic",8.14
"17741","SCC(=O)NCC","CC/N=C(/O)\CS","InChI=1S/C4H9NOS/c1-2-5-4(6)3-7/h7H,2-3H2,1H3,(H,5,6)","SBGGZIBNXNOCEV-UHFFFAOYSA-N","?",,"potentiometric","a/apparent","?","acidic",8.14
"13315","S=C1(NC(=S)C(N1)C2(=CC=CC=C2))","S=C1NC(C2C=CC=CC=2)C(=S)N1","InChI=1S/C9H8N2S2/c12-8-7(10-9(13)11-8)6-4-2-1-3-5-6/h1-5,7H,(H2,10,11,12,13)","SPODYUSINQXCQA-UHFFFAOYSA-N","?","25","spectrophotometric","a2/apparent","?","acidic",8.15
"16503","S(=O)(=O)(NC1(=NC(OC)=CC(=N1)OC))C2(=CC=C(O)C=C2)","COC1=CC(=NC(NS(=O)(=O)C2C=CC(O)=CC=2)=N1)OC","InChI=1S/C12H13N3O5S/c1-19-10-7-11(20-2)14-12(13-10)15-21(17,18)9-5-3-8(16)4-6-9/h3-7,16H,1-2H3,(H,13,14,15)","DNLIOTBQSZXSPB-UHFFFAOYSA-N","?, ?",,"spectrophotometric","a1/apparent","?, ?","acidic",8.17
"14139","O=C(NCC[NH+](C)C)C=NO","CN(C)CCNC(=O)CN=O","InChI=1S/C6H13N3O2/c1-9(2)4-3-7-6(10)5-8-11/h3-5H2,1-2H3,(H,7,10)","QOFINELSJSPTKC-UHFFFAOYSA-N","?","25","potentiometric","a1/apparent","?","acidic",8.17
"17511","O=C(OO)C","C=C(O)OO","InChI=1S/C2H4O3/c1-2(3)5-4/h3-4H,1H2","QXHZFZIQBUGYAB-UHFFFAOYSA-N","?","20","mean from 2","a1/apparent","?","acidic",8.19
"13845","OC2(=CC=1(C(=NC=NC=1)C=C2))","OC1=CC2=CN=CN=C2C=C1","InChI=1S/C8H6N2O/c11-7-1-2-8-6(3-7)4-9-5-10-8/h1-5,11H","BBPMVEXRMOAIKQ-UHFFFAOYSA-N","?","20","potentiometric","a2/apparent","?","acidic",8.19
"13648","ON=C(C1(=C(O)C=C(C)C(=C1)C))C","CC1=CC(C(C)N=O)=C(O)C=C1C","InChI=1S/C10H13NO2/c1-6-4-9(8(3)11-13)10(12)5-7(6)2/h4-5,8,12H,1-3H3","AEOQRKIRQRVDLR-UHFFFAOYSA-N","?","30","potentiometric","a1/apparent","?","acidic",8.2
"10855","OC1(=CC([N+](C)(C)C)=CC(=C1)C)","CC1C=C(C=C(O)C=1)[N+](C)(C)C","InChI=1S/C10H15NO/c1-8-5-9(11(2,3)4)7-10(12)6-8/h5-7H,1-4H3/p+1","SKAJYBWQOLBZCJ-UHFFFAOYSA-O","?","25","potentiometric","a/apparent","?","acidic",8.2
"15086","S(=O)(=O)(NC1(=NC=CC=C1))C2(=CC=CC=C2)","O=S(=O)(NC1C=CC=CN=1)C1C=CC=CC=1","InChI=1S/C11H10N2O2S/c14-16(15,10-6-2-1-3-7-10)13-11-8-4-5-9-12-11/h1-9H,(H,12,13)","QOMITRCCGIXFIG-UHFFFAOYSA-N","?","20","potentiometric","a/apparent","?","acidic",8.2
"16203","S1(C(=NN=C1C2(=CC=CC=C2))NC(=O)OCC)","CCOC(=O)NC1=NN=C(S1)C1C=CC=CC=1","InChI=1S/C11H11N3O2S/c1-2-16-11(15)12-10-14-13-9(17-10)8-6-4-3-5-7-8/h3-7H,2H2,1H3,(H,12,14,15)","YNUBLGKVULYHIV-UHFFFAOYSA-N","?",,"spectrophotometric","a/apparent","?","acidic",8.2
"17474","[Br]NC(=O)CC","CC/C(/O)=N\Br","InChI=1S/C3H6BrNO/c1-2-3(6)5-4/h2H2,1H3,(H,5,6)","AMYQBWGTTRGDLR-UHFFFAOYSA-N","?","21","potentiometric","a1/apparent","?","acidic",8.2
"17630","O=C(OO)CCC","CCC=C(O)OO","InChI=1S/C4H8O3/c1-2-3-4(5)7-6/h3,5-6H,2H2,1H3","STKVKJPSCMERRG-UHFFFAOYSA-N","?","21.5","potentiometric","a/apparent","?","acidic",8.2
"13465","S(C=1(NN=NC=1))CC2(=CC=CC=C2)","C(SC1=CN=NN1)C1C=CC=CC=1","InChI=1S/C9H9N3S/c1-2-4-8(5-3-1)7-13-9-6-10-12-11-9/h1-6H,7H2,(H,10,11,12)","AACACTZERFCGJT-UHFFFAOYSA-N","?","23","spectrophotometric","a1/apparent","NH","acidic",8.2
"16244","S=C(N(CC)CC)NC(=O)C1(=CC(F)=CC=C1)","CCN(CC)C(=S)NC(=O)C1C=CC=C(F)C=1","InChI=1S/C12H15FN2OS/c1-3-15(4-2)12(17)14-11(16)9-6-5-7-10(13)8-9/h5-8H,3-4H2,1-2H3,(H,14,16,17)","SFECAIFOCWCFDI-UHFFFAOYSA-N","?","25","spectrophotometric","a1/apparent","?","acidic",8.21
"14514","OC1(=CC(=C(C#N)C(=C1)C)C)","CC1C=C(O)C=C(C)C=1C#N","InChI=1S/C9H9NO/c1-6-3-8(11)4-7(2)9(6)5-10/h3-4,11H,1-2H3","KZEJTKHRBQWACL-UHFFFAOYSA-N","?","25","potentiometric","thermodynamic","?","acidic",8.21
"15574","[O-][N+]3(=C(NCC1(=CC=CC=C1))C=2(N=CNC=2N=C3))","[O-][N+]1C=NC2NC=NC=2C=1NCC1C=CC=CC=1","InChI=1S/C12H11N5O/c18-17-8-16-11-10(14-7-15-11)12(17)13-6-9-4-2-1-3-5-9/h1-5,7-8,13H,6H2,(H,14,15,16)","ZYWWSEMOCAYFNC-UHFFFAOYSA-N","?","30",,"a1/apparent","?","acidic",8.22
"17573","SCC(=O)N","N=C(O)CS","InChI=1S/C2H5NOS/c3-2(4)1-5/h5H,1H2,(H2,3,4)","GYXHHICIFZSKKZ-UHFFFAOYSA-N","?","25","potentiometric","a/apparent","?","acidic",8.22
"15111","OC2(=C(N=NC=1(C(=NNC=1N)N))C=CC=C2)","NC1=NNC(N)=C1N=NC1C=CC=CC=1O","InChI=1S/C9H10N6O/c10-8-7(9(11)15-14-8)13-12-5-3-1-2-4-6(5)16/h1-4,16H,(H5,10,11,14,15)","NMUKEYNAORQEIT-UHFFFAOYSA-N","?","25","spectrophotometric","a2/apparent","?","acidic",8.22
"11300","O=C(OO)CCCCCCCC","CCCCCCCC=C(O)OO","InChI=1S/C9H18O3/c1-2-3-4-5-6-7-8-9(10)12-11/h8,10-11H,2-7H2,1H3","OVTZVDTXZGZTLT-UHFFFAOYSA-N","?","25","potentiometric","a1/apparent","C(O)OOH","acidic",8.23
"14080","O=[N+]([O-])C([N+](=O)[O-])C(C)(C)C","CC(C)(C)C([N+]([O-])=O)[N+]([O-])=O","InChI=1S/C5H10N2O4/c1-5(2,3)4(6(8)9)7(10)11/h4H,1-3H3","PUAQXIBPQREXII-UHFFFAOYSA-N","?","20","spectrophotometric","a1/apparent","?","acidic",8.24
"13703","O=C(OC)CC(=O)C1(=CC=NC=C1)","COC(O)=CC(=O)C1C=CN=CC=1","InChI=1S/C9H9NO3/c1-13-9(12)6-8(11)7-2-4-10-5-3-7/h2-6,12H,1H3","VBQKJINSKLBRPK-UHFFFAOYSA-N","?","25","spectrophotometric","a1/apparent","?","acidic",8.24
"16782","S(=O)(=O)(N(CCO)CCO)C1(=CC(=C(O)C(=C1)C)C)","CC1C=C(C=C(C)C=1O)S(=O)(=O)N(CCO)CCO","InChI=1S/C12H19NO5S/c1-9-7-11(8-10(2)12(9)16)19(17,18)13(3-5-14)4-6-15/h7-8,14-16H,3-6H2,1-2H3","DRLQTIIPBSKURE-UHFFFAOYSA-N","?","25","spectrophotometric","a1/apparent","C6H2R3O-H","acidic",8.25
"11224","O=C1(OC(=O)C=2(C=CC=CC=2(N1)))","O=C1OC(=O)NC2C=CC=CC1=2","InChI=1S/C8H5NO3/c10-7-5-3-1-2-4-6(5)9-8(11)12-7/h1-4H,(H,9,11)","TXJUTRJFNRYTHH-UHFFFAOYSA-N","?","25","spectrophotometric","a1/apparent","H","acidic",8.25
"13852","OC=2(C1(=NN=CC=C1C=CC=2))","OC1=CC=CC2=CC=NN=C21","InChI=1S/C8H6N2O/c11-7-3-1-2-6-4-5-9-10-8(6)7/h1-5,11H","UCYUOFIVFHOUTP-UHFFFAOYSA-N","?","20","mean from 2","a2/apparent","?","acidic",8.25
"10884","O=[N+]([O-])C1(=C(C=C(O)C=C1C)C)","CC1C=C(O)C=C(C)C=1[N+]([O-])=O","InChI=1S/C8H9NO3/c1-5-3-7(10)4-6(2)8(5)9(11)12/h3-4,10H,1-2H3","MMLPWOHLKRXZJA-UHFFFAOYSA-N","?","25","potentiometric","thermodynamic","?","acidic",8.25
"13273","O=C2(OC1(=C(C(O)=CC=C1)C(=C2)C))","CC1=CC(=O)OC2C=CC=C(O)C=21","InChI=1S/C10H8O3/c1-6-5-9(12)13-8-4-2-3-7(11)10(6)8/h2-5,11H,1H3","KZTGTVVRGQELJS-UHFFFAOYSA-N","?","25","spectrophotometric","a/thermodynamic","?","acidic",8.26
"16770","FC1(F)(OC(F)(C(F)(F)C(=O)NN)C(C1(F)F)(F)F)","NNC(=O)C(F)(F)C1(F)OC(F)(F)C(F)(F)C1(F)F","InChI=1S/C6H3F9N2O2/c7-2(8,1(18)17-16)5(13)3(9,10)4(11,12)6(14,15)19-5/h16H2,(H,17,18)","RIEAALOPPYOPFD-UHFFFAOYSA-N","?","25",,"a1/apparent","NH","acidic",8.26
"11435","ClC1(=C(C(O)=CC=C1)C=O)","OC1=CC=CC(Cl)=C1C=O","InChI=1S/C7H5ClO2/c8-6-2-1-3-7(10)5(6)4-9/h1-4,10H","MVTWVXYIKIVAOJ-UHFFFAOYSA-N","?","25","mean from 2","a1/apparent","?","acidic",8.26
"11593","ON=CC1(=CC=[N+](C)C=C1)","C[N+]1C=CC(CN=O)=CC=1","InChI=1S/C7H9N2O/c1-9-4-2-7(3-5-9)6-8-10/h2-5H,6H2,1H3/q+1","ROLLZIJDMKLEGC-UHFFFAOYSA-N","?","25","potentiometric","a1/apparent","NOH","acidic",8.27
"13257","S1(SC(=O)C=C1C2(=CC=C(O)C=C2))","OC1C=CC(=CC=1)C1=CC(=O)SS1","InChI=1S/C9H6O2S2/c10-7-3-1-6(2-4-7)8-5-9(11)13-12-8/h1-5,10H","XXDYQIINMXOSSO-UHFFFAOYSA-N","?",,,"a1/apparent","?","acidic",8.27
"14516","OC1(=C(C=C(C#N)C=C1C)C)","CC1=CC(=CC(C)=C1O)C#N","InChI=1S/C9H9NO/c1-6-3-8(5-10)4-7(2)9(6)11/h3-4,11H,1-2H3","WFYGXOWFEIOHCZ-UHFFFAOYSA-N","?","25","potentiometric","thermodynamic","?","acidic",8.27
"14933","O=C(NC1(=CC(=CC=C1)C[NH+](C)C))C=NO","CN(C)CC1=CC(=CC=C1)NC(=O)CN=O","InChI=1S/C11H15N3O2/c1-14(2)8-9-4-3-5-10(6-9)13-11(15)7-12-16/h3-6H,7-8H2,1-2H3,(H,13,15)","YHTIIEGYPYGUEY-UHFFFAOYSA-N","?","25","potentiometric","a1/apparent","?","acidic",8.28
"11430","S(=O)(C1(=CC=C(O)C=C1))C","CS(=O)C1C=CC(O)=CC=1","InChI=1S/C7H8O2S/c1-10(9)7-4-2-6(8)3-5-7/h2-5,8H,1H3","ZCQSJUGIZGMDDA-UHFFFAOYSA-N","?","25","potentiometric","a/apparent","?","acidic",8.28