"Molecule name","OriginalSmiles","Canonical_QSARr","InChI_Code_QSARr","InChI Key_QSARr","Salt_Solvent (Concatenate)","temp","method","type","group","basicOrAcidic","pKa"
"10553","O=C1(OC(C(=O)O)C(C1)C(=O)O)","OC(O)=C1OC(O)=CC1C(O)=O","InChI=1S/C6H6O6/c7-3-1-2(5(8)9)4(12-3)6(10)11/h1-2,7,10-11H,(H,8,9)","HQGNAXZGTOBBAA-UHFFFAOYSA-N","?, ?, ?, ?","28","mean from 2","a1/apparent","?, ?, ?, ?","acidic",3.2099999999999995
"17343","IC(C(=O)O)C","CC(I)=C(O)O","InChI=1S/C3H5IO2/c1-2(4)3(5)6/h5-6H,1H3","AKSVZLHXNNXLBG-UHFFFAOYSA-N","?","25",,"apparent","?","acidic",3.21
"14543","O=C(O)C1(N(C(=O)C)CCC1)","C=C(O)N1CCCC1=C(O)O","InChI=1S/C7H11NO3/c1-5(9)8-4-2-3-6(8)7(10)11/h9-11H,1-4H2","NDVTXXAPGVNKRE-UHFFFAOYSA-N","?","40","mean from 3","a1/apparent","CONR","acidic",3.21
"11156","SC=2(C=1(C(=[N+](C=CC=1)C)C=CC=2))","C[N+]1C=CC=C2C(S)=CC=CC=12","InChI=1S/C10H9NS/c1-11-7-3-4-8-9(11)5-2-6-10(8)12/h2-7H,1H3/p+1","YRKPYPYAOIVLAX-UHFFFAOYSA-O","?","20","spectrophotometric","a/apparent","?","acidic",3.22
"16497","O=C(O)C2(OC(OC1(=CC=C(C#N)C=C1))C(O)C(C2O)O)","N#CC1C=CC(=CC=1)OC1OC(C(O)C(O)C1O)=C(O)O","InChI=1S/C13H13NO7/c14-5-6-1-3-7(4-2-6)20-13-10(17)8(15)9(16)11(21-13)12(18)19/h1-4,8-10,13,15-19H","NHLLQTCDPXZNLQ-UHFFFAOYSA-N","?","22","potentiometric","a/apparent","?","acidic",3.22
"16626","S(C1(=C(C(=O)O)C=C([N+](=O)[O-])C=C1))C2(=CC=CC=C2)","[O-][N+](=O)C1=CC(C(O)=O)=C(C=C1)SC1C=CC=CC=1","InChI=1S/C13H9NO4S/c15-13(16)11-8-9(14(17)18)6-7-12(11)19-10-4-2-1-3-5-10/h1-8H,(H,15,16)","MBGUREXFPRWNKS-UHFFFAOYSA-N","?","25","potentiometric","a1/apparent","OH","acidic",3.22
"17619","P(=O)(O)(CC)CC","CCP(O)(=O)CC","InChI=1S/C4H11O2P/c1-3-7(5,6)4-2/h3-4H2,1-2H3,(H,5,6)","KTLIMPGQZDZPSB-UHFFFAOYSA-N","?","25","mean from 2","a1/apparent","OH","acidic",3.22
"17613","ClC(C(=O)O)=CC","CC=C(Cl)C(O)=O","InChI=1S/C4H5ClO2/c1-2-3(5)4(6)7/h2H,1H3,(H,6,7)","WMDBQMYVAIBBDH-UHFFFAOYSA-N","?","25","conductometric","a/thermodynamic","?","acidic",3.22
"14064","P(=O)(O)(CCCC)CCCC","CCCCP(O)(=O)CCCC","InChI=1S/C8H19O2P/c1-3-5-7-11(9,10)8-6-4-2/h3-8H2,1-2H3,(H,9,10)","KSHDLNQYVGBYHZ-UHFFFAOYSA-N","?","25","potentiometric","a1/apparent","OH","acidic",3.22
"11924","O=C(O)C(=CC(=O)NC)C","CC(=CC(=O)NC)C(O)=O","InChI=1S/C6H9NO3/c1-4(6(9)10)3-5(8)7-2/h3H,1-2H3,(H,7,8)(H,9,10)","RMFNVKHKGWYFEJ-UHFFFAOYSA-N","?","39","spectrophotometric","a1/apparent","?","acidic",3.23
"12572","O=C(O)CC#CC#CC","CC#CC#CC=C(O)O","InChI=1S/C7H6O2/c1-2-3-4-5-6-7(8)9/h6,8-9H,1H3","YBNHEJHPCVHJJY-UHFFFAOYSA-N","?","25","potentiometric","a/apparent","?","acidic",3.23
"14175","O=C(O)C1(=C(C=CC=C1C)C)","CC1C=CC=C(C)C=1C(O)=O","InChI=1S/C9H10O2/c1-6-4-3-5-7(2)8(6)9(10)11/h3-5H,1-2H3,(H,10,11)","HCBHQDKBSKYGCK-UHFFFAOYSA-N","?","24","mean from 6","a1/thermodynamic","C(=O)O-H","acidic",3.23
"14593","P(=O)(O)(CCCCCC)CCCCCC","CCCCCCP(O)(=O)CCCCCC","InChI=1S/C12H27O2P/c1-3-5-7-9-11-15(13,14)12-10-8-6-4-2/h3-12H2,1-2H3,(H,13,14)","NGKCHGKFHQDOPZ-UHFFFAOYSA-N","?","25","potentiometric","a1/apparent","OH","acidic",3.24
"14435","S1(C([N+](=O)[O-])=CC(=C1)C(=O)O)","[O-][N+](=O)C1=CC(=CS1)C(O)=O","InChI=1S/C5H3NO4S/c7-5(8)3-1-4(6(9)10)11-2-3/h1-2H,(H,7,8)","VNJUNWUOAKEIKG-UHFFFAOYSA-N","?","24","mean from 2","a1/apparent","?","acidic",3.24
"13627","[Br]C1(=C([N+](=O)[O-])C=C(C(=O)O)C=C1)","[O-][N+](=O)C1C=C(C=CC=1Br)C(O)=O","InChI=1S/C7H4BrNO4/c8-5-2-1-4(7(10)11)3-6(5)9(12)13/h1-3H,(H,10,11)","RVCTZJVBWNFYRU-UHFFFAOYSA-N","?","25",,"apparent","?","acidic",3.24
"11905","O=C(O)C([NH3+])CC(CC)C","CC(CC(=N)C(O)O)CC","InChI=1S/C7H15NO2/c1-3-5(2)4-6(8)7(9)10/h5,7-10H,3-4H2,1-2H3","WJWNDKYCTZSCTN-UHFFFAOYSA-N","?","24.85","potentiometric","a1/apparent","COOH","acidic",3.25
"12546","O=[N+]([O-])C2(=CC(C1(=NN=NN1))=CC=C2)","[O-][N+](=O)C1=CC(=CC=C1)C1NN=NN=1","InChI=1S/C7H5N5O2/c13-12(14)6-3-1-2-5(4-6)7-8-10-11-9-7/h1-4H,(H,8,9,10,11)","ZJFFBXHGOXPKCP-UHFFFAOYSA-N","?","20","spectrophotometric","a1/apparent","NH","acidic",3.25
"14065","P(=O)(O)(CC(C)C)CC(C)C","CC(C)CP(O)(=O)CC(C)C","InChI=1S/C8H19O2P/c1-7(2)5-11(9,10)6-8(3)4/h7-8H,5-6H2,1-4H3,(H,9,10)","DRDKFCAHTAHYER-UHFFFAOYSA-N","?","25","potentiometric","a1/apparent","OH","acidic",3.25
"13189","P(=O)(O)(CCC(C)C)CCC(C)C","CC(C)CCP(O)(=O)CCC(C)C","InChI=1S/C10H23O2P/c1-9(2)5-7-13(11,12)8-6-10(3)4/h9-10H,5-8H2,1-4H3,(H,11,12)","BBMQPOBFBRNWAD-UHFFFAOYSA-N","?","25","potentiometric","a1/apparent","OH","acidic",3.26
"13093","S1(C(C(=O)O)=CN=C1C)","CC1=NC=C(S1)C(O)=O","InChI=1S/C5H5NO2S/c1-3-6-2-4(9-3)5(7)8/h2H,1H3,(H,7,8)","QCXCIYPOMMIBHO-UHFFFAOYSA-N","?","25","potentiometric","a/apparent","?","acidic",3.26
"11366","O=C1(OC=C(C(=O)O)C=C1)","OC(=O)C1C=CC(=O)OC=1","InChI=1S/C6H4O4/c7-5-2-1-4(3-10-5)6(8)9/h1-3H,(H,8,9)","ORGPJDKNYMVLFL-UHFFFAOYSA-N","?","25","conductometric","a/thermodynamic","?","acidic",3.26
"14210","IC1(=C(C(C(=O)O)=CC=C1)C)","CC1=C(I)C=CC=C1C(O)=O","InChI=1S/C8H7IO2/c1-5-6(8(10)11)3-2-4-7(5)9/h2-4H,1H3,(H,10,11)","XGNKIHYPOWUMKL-UHFFFAOYSA-N","?","20","potentiometric","a/thermodynamic","?","acidic",3.26
"14712","O=[N+]([O-])C1(=C(C(C(=O)O)=CC=C1)C(=O)C)","C=C(O)C1C(=CC=CC=1[N+]([O-])=O)C(O)=O","InChI=1S/C9H7NO5/c1-5(11)8-6(9(12)13)3-2-4-7(8)10(14)15/h2-4,11H,1H2,(H,12,13)","RKOZFBAQHJWKGB-UHFFFAOYSA-N","?","20","potentiometric","a/thermodynamic","?","acidic",3.26
"15469","O=C(O)C3(C=C2(C4(=C1(C(NC=C1CC2[NH+](C3)C)=CC=C4))))","CN1CC(C=C2C1CC1=CNC3=CC=CC2=C31)=C(O)O","InChI=1S/C16H16N2O2/c1-18-8-10(16(19)20)5-12-11-3-2-4-13-15(11)9(7-17-13)6-14(12)18/h2-5,7,14,17,19-20H,6,8H2,1H3","NWDLLIYZNSKCHR-UHFFFAOYSA-N","?, ?","23","mean from 3","a1/apparent","?, ?","acidic",3.2649999999999997
"14220","ClC1(=C(C(=O)O)C=CC(=C1)C)","CC1C=CC(C(O)=O)=C(Cl)C=1","InChI=1S/C8H7ClO2/c1-5-2-3-6(8(10)11)7(9)4-5/h2-4H,1H3,(H,10,11)","MYJUBDJLKREUGU-UHFFFAOYSA-N","?","20","potentiometric","a/thermodynamic","?","acidic",3.27
"14710","O=[N+]([O-])C1(=CC(=C(C(=O)C)C=C1)C(=O)O)","C=C(O)C1C=CC(=CC=1C(O)=O)[N+]([O-])=O","InChI=1S/C9H7NO5/c1-5(11)7-3-2-6(10(14)15)4-8(7)9(12)13/h2-4,11H,1H2,(H,12,13)","DAIFNSWIBKSFCI-UHFFFAOYSA-N","?","20","potentiometric","a/thermodynamic","?","acidic",3.27
"15374","IC2(=CC=C(OC1(OC(C(=O)O)C(O)C(C1O)O))C=C2)","OC(O)=C1OC(OC2C=CC(I)=CC=2)C(O)C(O)C1O","InChI=1S/C12H13IO7/c13-5-1-3-6(4-2-5)19-12-9(16)7(14)8(15)10(20-12)11(17)18/h1-4,7-9,12,14-18H","KCMQNVJVKZYNCW-UHFFFAOYSA-N","?","22","potentiometric","a/apparent","?","acidic",3.28
"11398","O=C(O)[C+]1(C=CC=CC=C1)","OC(=O)[C+]1C=CC=CC=C1","InChI=1S/C8H6O2/c9-8(10)7-5-3-1-2-4-6-7/h1-6H/p+1","LDJDQNKTUAEYST-UHFFFAOYSA-O","?",,,"a/apparent","?","acidic",3.29
"14665","O=C([O-])C1([NH2+]CC(C1CC(=O)O)C(=C)C)","CC(=C)C1CN=C(C1C=C(O)O)C(O)O","InChI=1S/C10H15NO4/c1-5(2)7-4-11-9(10(14)15)6(7)3-8(12)13/h3,6-7,10,12-15H,1,4H2,2H3","RSBFVRNCRHSKHQ-UHFFFAOYSA-N","?, ?, ?, ?",,,"a2/apparent","?, ?, ?, ?","acidic",3.2999999999999994
"15438","O=C(O)C2(OC(OC1(=C([NH3+])C=CC=C1))C(O)C(C2O)O)","NC1=CC=CC=C1OC1OC(C(O)C(O)C1O)=C(O)O","InChI=1S/C12H15NO7/c13-5-3-1-2-4-6(5)19-12-9(16)7(14)8(15)10(20-12)11(17)18/h1-4,7-9,12,14-18H,13H2","CMDDJOJLBKBFJG-UHFFFAOYSA-N","?","22","potentiometric","apparent","?","acidic",3.3
"15528","O2(N=C3(CC[NH+](CC1(=CC=CC=C1))CCC3(=C2O)))","OC1ON=C2CCN(CC3C=CC=CC=3)CCC2=1","InChI=1S/C14H16N2O2/c17-14-12-6-8-16(9-7-13(12)15-18-14)10-11-4-2-1-3-5-11/h1-5,17H,6-10H2","KNZRBASXGUSDGM-UHFFFAOYSA-N","?","25","potentiometric","a1/apparent","?","acidic",3.3
"13088","ClC=1(SC=C(N=1)C(=O)O)","OC(=O)C1=CSC(Cl)=N1","InChI=1S/C4H2ClNO2S/c5-4-6-2(1-9-4)3(7)8/h1H,(H,7,8)","UVYJJJQMZPCYKY-UHFFFAOYSA-N","?","25","potentiometric","a/apparent","?","acidic",3.3
"12786","[Br]C=1(SC(C(=O)O)=CC=1)","OC(=O)C1=CC=C(Br)S1","InChI=1S/C5H3BrO2S/c6-4-2-1-3(9-4)5(7)8/h1-2H,(H,7,8)","COWZPSUDTMGBAT-UHFFFAOYSA-N","?","25","potentiometric","a/apparent","?","acidic",3.3
"13050","O=C(O)CN1(C=CC=C1)","OC(O)=CN1C=CC=C1","InChI=1S/C6H7NO2/c8-6(9)5-7-3-1-2-4-7/h1-5,8-9H","LJIWYOAAEWGLFG-UHFFFAOYSA-N","?","25",,"a1/apparent","COO-H","acidic",3.3
"13842","O1(N=C2(CC[NH2+]CCC2(=C1O)))","OC1ON=C2CCNCCC2=1","InChI=1S/C7H10N2O2/c10-7-5-1-3-8-4-2-6(5)9-11-7/h8,10H,1-4H2","ADCZCHGZOJHXPU-UHFFFAOYSA-N","?","25","potentiometric","a1/apparent","?","acidic",3.3
"12366","O=C(O)C2(C1(=NN=NN1C(C)CCC2))","CC1CCCC(C2=NN=NN21)=C(O)O","InChI=1S/C8H12N4O2/c1-5-3-2-4-6(8(13)14)7-9-10-11-12(5)7/h5,13-14H,2-4H2,1H3","GASPKPZUPPIYPT-UHFFFAOYSA-N","?",,,"a/apparent","?","acidic",3.3
"14157","S1(C(C(=O)O)CCC1C(=O)O)","OC(O)=C1CCC(S1)=C(O)O","InChI=1S/C6H8O4S/c7-5(8)3-1-2-4(11-3)6(9)10/h7-10H,1-2H2","GFDKJFLLMPOMKZ-UHFFFAOYSA-N","?, ?",,"conductometric","a1/apparent","?, ?","acidic",3.32
"13135","O=C1(NC(C(=O)O)CC1)","OC1=CCC(=N1)C(O)O","InChI=1S/C5H7NO3/c7-4-2-1-3(6-4)5(8)9/h2,5,7-9H,1H2","SGPIYHCRCMXVFL-UHFFFAOYSA-N","?, ?",,"potentiometric","a/thermodynamic","?, COOH","acidic",3.325
"16949","O=C(O)C=1(C=2(C(C=C(C=1C)C)=CC=CC=2))","CC1=CC2=CC=CC=C2C(C(O)=O)=C1C","InChI=1S/C13H12O2/c1-8-7-10-5-3-4-6-11(10)12(9(8)2)13(14)15/h3-7H,1-2H3,(H,14,15)","RBBDPYXZGDGBSL-UHFFFAOYSA-N","?","25","spectrophotometric","a/apparent","?","acidic",3.33
"13625","ClC1(=C([N+](=O)[O-])C=C(C(=O)O)C=C1)","[O-][N+](=O)C1C=C(C=CC=1Cl)C(O)=O","InChI=1S/C7H4ClNO4/c8-5-2-1-4(7(10)11)3-6(5)9(12)13/h1-3H,(H,10,11)","DFXQXFGFOLXAPO-UHFFFAOYSA-N","?","25","mean from 2","a1/thermodynamic","COOH","acidic",3.33
"16130","O=[N+]([O-])C2(=NN(C1(=CC=CC=C1))C(=N2)NN=O)","[O-][N+](=O)C1N=C(NN=O)N(N=1)C1C=CC=CC=1","InChI=1S/C8H6N6O3/c15-12-10-7-9-8(14(16)17)11-13(7)6-4-2-1-3-5-6/h1-5H,(H,9,10,11,15)","FPNLHCZPGUFABL-UHFFFAOYSA-N","?","25","spectrophotometric","a1/apparent","N-H","acidic",3.33
"13520","O=C(O)C=CC(=O)C1(=CC=CC=C1)","OC(=O)C=CC(=O)C1C=CC=CC=1","InChI=1S/C10H8O3/c11-9(6-7-10(12)13)8-4-2-1-3-5-8/h1-7H,(H,12,13)","PLPDHGOODMBBGN-UHFFFAOYSA-N","?","25","spectrophotometric","a1/apparent","COOH","acidic",3.34
"14258","O=C(O)C1(=C(O)C=CC=C1C)","CC1=CC=CC(O)=C1C(O)=O","InChI=1S/C8H8O3/c1-5-3-2-4-6(9)7(5)8(10)11/h2-4,9H,1H3,(H,10,11)","HCJMNOSIAGSZBM-UHFFFAOYSA-N","?","22","mean from 3","a1/apparent","COOH","acidic",3.35
"13510","O=C(O)COC1(=C(C=CC=C1C)C)","CC1=CC=CC(C)=C1OC=C(O)O","InChI=1S/C10H12O3/c1-7-4-3-5-8(2)10(7)13-6-9(11)12/h3-6,11-12H,1-2H3","BXHQICUAZOTDQX-UHFFFAOYSA-N","?","25","potentiometric","apparent","?","acidic",3.36
"14217","[Br]C1(=C(C(C(=O)O)=CC=C1)C)","CC1=C(Br)C=CC=C1C(O)=O","InChI=1S/C8H7BrO2/c1-5-6(8(10)11)3-2-4-7(5)9/h2-4H,1H3,(H,10,11)","BJGKVCKGUBYULR-UHFFFAOYSA-N","?","20","potentiometric","a/thermodynamic","?","acidic",3.36
"15267","O=C(O)C1(OC(OC(=O)C(CC)CC)C(O)C(C1O)O)","CCC(CC)=C(O)OC1OC(C(O)C(O)C1O)=C(O)O","InChI=1S/C12H20O8/c1-3-5(4-2)11(18)20-12-8(15)6(13)7(14)9(19-12)10(16)17/h6-8,12-18H,3-4H2,1-2H3","SCCKKMWVFYPWTQ-UHFFFAOYSA-N","?","22","potentiometric","a/apparent","?","acidic",3.37
"13626","FC1(=C([N+](=O)[O-])C=C(C(=O)O)C=C1)","[O-][N+](=O)C1C=C(C=CC=1F)C(O)=O","InChI=1S/C7H4FNO4/c8-5-2-1-4(7(10)11)3-6(5)9(12)13/h1-3H,(H,10,11)","BOJWTAQWPVBIPG-UHFFFAOYSA-N","?","25",,"apparent","?","acidic",3.37
"13270","O=C(O)C2(OC1(=C(C=CC=C1)CC2))","OC(O)=C1CCC2C=CC=CC=2O1","InChI=1S/C10H10O3/c11-10(12)9-6-5-7-3-1-2-4-8(7)13-9/h1-4,11-12H,5-6H2","OFQNBSGSDNWJAJ-UHFFFAOYSA-N","?","25","potentiometric","a/apparent","?","acidic",3.38
"16377","O=C(O)C(C2(=CC=C(C1(=CC=CC=C1))C=C2))C(O)(C3(=CC=CC=C3))C","CC(O)(C(C1C=CC(=CC=1)C1C=CC=CC=1)=C(O)O)C1C=CC=CC=1","InChI=1S/C22H20O3/c1-22(25,19-10-6-3-7-11-19)20(21(23)24)18-14-12-17(13-15-18)16-8-4-2-5-9-16/h2-15,23-25H,1H3","ALCACJWGMNRIOU-UHFFFAOYSA-N","?","25","mean from 2","a1/thermodynamic","?","acidic",3.38
"17632","O=C(O)C(OC)=C","COC(=C)C(O)=O","InChI=1S/C4H6O3/c1-3(7-2)4(5)6/h1H2,2H3,(H,5,6)","LQAQMOIBXDELJX-UHFFFAOYSA-N","?","25",,"a1/thermodynamic","-COOH","acidic",3.38
"10255","O=C(O)C1(C[NH2+]CC1)","OC(O)=C1CNCC1","InChI=1S/C5H9NO2/c7-5(8)4-1-2-6-3-4/h6-8H,1-3H2","QDEXIVDHHFCAKJ-UHFFFAOYSA-N","?",,,"a1/apparent","?","acidic",3.38
"10299","O=C(O)C1(=CON=C1)","OC(=O)C1C=NOC=1","InChI=1S/C4H3NO3/c6-4(7)3-1-5-8-2-3/h1-2H,(H,6,7)","LYPXTDXYEQEIIN-UHFFFAOYSA-N","?","15","potentiometric","a/thermodynamic","?","acidic",3.39
"16423","O=C(O)C1(C[NH+](C2(CC4(=CNC=3(C4(=C(C2(C1)(O))C=CC=3)))))C)","CN1CC(CC2(O)C1CC1=CNC3=CC=CC2=C13)=C(O)O","InChI=1S/C16H18N2O3/c1-18-8-10(15(19)20)6-16(21)11-3-2-4-12-14(11)9(7-17-12)5-13(16)18/h2-4,7,13,17,19-21H,5-6,8H2,1H3","PIFCDXONLFOGQZ-UHFFFAOYSA-N","?, ?, ?","22","potentiometric","a1/apparent","?, ?, ?","acidic",3.393333333333333
"12524","O=C1(NC(=O)C(C1=O)C2(=CC=CC=C2))","OC1=NC(=O)C(=O)C1C1C=CC=CC=1","InChI=1S/C10H7NO3/c12-8-7(9(13)11-10(8)14)6-4-2-1-3-5-6/h1-5,7H,(H,11,13,14)","ZIQMDGHNRLGXRQ-UHFFFAOYSA-N","?",,,"a/apparent","?","acidic",3.4
"14841","O=C(O)C=CC(=O)C1(=CC=C(C(C)C)C=C1)","CC(C)C1C=CC(=CC=1)C(=O)C=CC(O)=O","InChI=1S/C13H14O3/c1-9(2)10-3-5-11(6-4-10)12(14)7-8-13(15)16/h3-9H,1-2H3,(H,15,16)","RVKCMDZQHQJWAK-UHFFFAOYSA-N","?","25","spectrophotometric","a1/apparent","COOH","acidic",3.4
"13560","SC1(=C([N+](=O)[O-])C=C([N+](=O)[O-])C=C1)","[O-][N+](=O)C1C=C(C=CC=1S)[N+]([O-])=O","InChI=1S/C6H4N2O4S/c9-7(10)4-1-2-6(13)5(3-4)8(11)12/h1-3,13H","MHKRINONGZJSSL-UHFFFAOYSA-N","?","25","spectrophotometric","a1/apparent","H(1+)","acidic",3.4
"13293","O=C(O)C2(C1(=NN=NN1CCCC2))","OC(O)=C1CCCCN2N=NN=C21","InChI=1S/C7H10N4O2/c12-7(13)5-3-1-2-4-11-6(5)8-9-10-11/h12-13H,1-4H2","OJPFYDFMWYFCNX-UHFFFAOYSA-N","?",,,"a/apparent","?","acidic",3.4
"10552","S(C(C(=O)O)=C)C1(CCCCC1)","C=C(SC1CCCCC1)C(O)=O","InChI=1S/C9H14O2S/c1-7(9(10)11)12-8-5-3-2-4-6-8/h8H,1-6H2,(H,10,11)","JLYYAPQYJMNHQB-UHFFFAOYSA-N","?","20","potentiometric","a/thermodynamic","?","acidic",3.4
"11323","S=C(S)N(CC(C)C)CC(C)C","CC(C)CN(CC(C)C)C(S)=S","InChI=1S/C9H19NS2/c1-7(2)5-10(9(11)12)6-8(3)4/h7-8H,5-6H2,1-4H3,(H,11,12)","CBQPQMSTIARRSA-UHFFFAOYSA-N","?","23",,"a1/apparent","S-H","acidic",3.4
"10550","IC(C1(=CC=CC=C1))=CC(=O)O","OC(=O)C=C(I)C1C=CC=CC=1","InChI=1S/C9H7IO2/c10-8(6-9(11)12)7-4-2-1-3-5-7/h1-6H,(H,11,12)","HWVUIOWIVXHYHZ-UHFFFAOYSA-N","?","25",,"apparent","?","acidic",3.4
"16439","O=C(O)C(C2(=CC=C(C1(=CC=CC=C1))C=C2))C(O)(CC)C","CCC(C)(O)C(C1C=CC(=CC=1)C1C=CC=CC=1)=C(O)O","InChI=1S/C18H20O3/c1-3-18(2,21)16(17(19)20)15-11-9-14(10-12-15)13-7-5-4-6-8-13/h4-12,19-21H,3H2,1-2H3","XPWHSSFPNGEIEN-UHFFFAOYSA-N","?","25","mean from 2","a1/thermodynamic","?","acidic",3.41
"12783","ClC=1(SC(C(=O)O)=CC=1)","OC(=O)C1=CC=C(Cl)S1","InChI=1S/C5H3ClO2S/c6-4-2-1-3(9-4)5(7)8/h1-2H,(H,7,8)","QZLSBOVWPHXCLT-UHFFFAOYSA-N","?","25","potentiometric","a/apparent","?","acidic",3.41
"10345","O=C(O)CC#CC=C","C=CC#CC=C(O)O","InChI=1S/C6H6O2/c1-2-3-4-5-6(7)8/h2,5,7-8H,1H2","JRQHYXODJYTEQK-UHFFFAOYSA-N","?","25","potentiometric","a/apparent","?","acidic",3.41
"16222","O=C(O)C=CC(=O)C1(=CC=C(C(C)(C)C)C=C1)","CC(C)(C)C1C=CC(=CC=1)C(=O)C=CC(O)=O","InChI=1S/C14H16O3/c1-14(2,3)11-6-4-10(5-7-11)12(15)8-9-13(16)17/h4-9H,1-3H3,(H,16,17)","APBQKTQKFFYBES-UHFFFAOYSA-N","?","25","spectrophotometric","a1/apparent","COOH","acidic",3.42
"12837","O=C(O)C=1(OC(C)=CC=1)","CC1=CC=C(O1)C(O)=O","InChI=1S/C6H6O3/c1-4-2-3-5(9-4)6(7)8/h2-3H,1H3,(H,7,8)","OVOCLWJUABOAPL-UHFFFAOYSA-N","?","20","potentiometric","a/apparent","?","acidic",3.42
"14127","O=C(O)C(C(=O)N)(C(=C)C)C","CC(=C)C(C)(C(N)=O)C(O)=O","InChI=1S/C7H11NO3/c1-4(2)7(3,5(8)9)6(10)11/h1H2,2-3H3,(H2,8,9)(H,10,11)","HOWPRTSFZUAUHP-UHFFFAOYSA-N","?","25",,"a/apparent","?","acidic",3.42
"13488","O=C(O)C1(=C(C(=CC(=C1C)C)C)C)","CC1=C(C(O)=O)C(C)=C(C)C=C1C","InChI=1S/C11H14O2/c1-6-5-7(2)9(4)10(8(6)3)11(12)13/h5H,1-4H3,(H,12,13)","STIDRZRESMTQBD-UHFFFAOYSA-N","?","25","spectrophotometric","a/thermodynamic","?","acidic",3.43
"12102","O=C(O)C(OC1(=C(C=CC=C1)C))CC","CC1C=CC=CC=1OC(CC)=C(O)O","InChI=1S/C11H14O3/c1-3-9(11(12)13)14-10-7-5-4-6-8(10)2/h4-7,12-13H,3H2,1-2H3","TZHVXYUYNWWATP-UHFFFAOYSA-N","?","25","potentiometric","a/apparent","?","acidic",3.43
"10025","[Se]1(C(C(=O)O)=CC=C1)","OC(=O)C1=CC=C[Se]1","InChI=1S/C5H4O2Se/c6-5(7)4-2-1-3-8-4/h1-3H,(H,6,7)","WAQBFLCVNNZBQR-UHFFFAOYSA-N","?","25",,"a1/thermodynamic","?","acidic",3.43
"12374","O=[N+]([O-])C1(=CC(=C2(N=NN(C2(=C1))O))C)","CC1C=C(C=C2C=1N=NN2O)[N+]([O-])=O","InChI=1S/C7H6N4O3/c1-4-2-5(11(13)14)3-6-7(4)8-9-10(6)12/h2-3,12H,1H3","GPTZJLZEBUJTOQ-UHFFFAOYSA-N","?","25","potentiometric","a1/apparent","OH","acidic",3.43
"14206","ClC1(=C(C(C(=O)O)=CC=C1)C)","CC1=C(Cl)C=CC=C1C(O)=O","InChI=1S/C8H7ClO2/c1-5-6(8(10)11)3-2-4-7(5)9/h2-4H,1H3,(H,10,11)","HXGHMCLCSPQMOR-UHFFFAOYSA-N","?","20","potentiometric","a/thermodynamic","?","acidic",3.43
"10826","O=C(O)CC[N+]1(CCCCC1)(C)","C[N+]1(CC=C(O)O)CCCCC1","InChI=1S/C9H17NO2/c1-10(8-5-9(11)12)6-3-2-4-7-10/h5H,2-4,6-8H2,1H3,(H-,11,12)/p+1","YEWQJFUKGOVBET-UHFFFAOYSA-O","?","25",,"a1/apparent","?","acidic",3.43
"13654","O=C(O)C(C1(=CC=CC=C1))CC#N","N#CCC(C1C=CC=CC=1)=C(O)O","InChI=1S/C10H9NO2/c11-7-6-9(10(12)13)8-4-2-1-3-5-8/h1-5,12-13H,6H2","MWAVHQQBVIXSPE-UHFFFAOYSA-N","?","25","conductometric","a/apparent","?","acidic",3.44
"12105","O=C(O)C=CC(=O)C1(=CC=C(C)C=C1)","CC1C=CC(=CC=1)C(=O)C=CC(O)=O","InChI=1S/C11H10O3/c1-8-2-4-9(5-3-8)10(12)6-7-11(13)14/h2-7H,1H3,(H,13,14)","VNJMEFZKYZHWEO-UHFFFAOYSA-N","?","25","spectrophotometric","a1/apparent","COOH","acidic",3.44
"14617","O=C(O)C1(=C(C=C(C(C)(C)C)C=C1C)C)","CC1C=C(C=C(C)C=1C(O)=O)C(C)(C)C","InChI=1S/C13H18O2/c1-8-6-10(13(3,4)5)7-9(2)11(8)12(14)15/h6-7H,1-5H3,(H,14,15)","BEVOWXHJERCALW-UHFFFAOYSA-N","?","25","conductometric","a/thermodynamic","?","acidic",3.44
"14946","N1(=NNC(=N1)C3(=CC=C(C2(=NN=NN2))C=C3))","C1=CC(=CC=C1C1NN=NN=1)C1NN=NN=1","InChI=1S/C8H6N8/c1-2-6(8-11-15-16-12-8)4-3-5(1)7-9-13-14-10-7/h1-4H,(H,9,10,13,14)(H,11,12,15,16)","TUSPQFBMQKZVAL-UHFFFAOYSA-N","?","20","spectrophotometric","a1/apparent","NH","acidic",3.44
"15626","O=[N+]([O-])C1(=CC(NC(C#N)=C(C#N)C#N)=CC=C1)","N#CC(=NC1=CC(=CC=C1)[N+]([O-])=O)C(C#N)C#N","InChI=1S/C11H5N5O2/c12-5-8(6-13)11(7-14)15-9-2-1-3-10(4-9)16(17)18/h1-4,8H","CPOCDCFSHQRRQO-UHFFFAOYSA-N","?","25","spectrophotometric","a1/apparent","?","acidic",3.45
"15213","O=C(O)C(C2(=CC=C(C1(=CC=CC=C1))C=C2))C3(O)(CCC(C)CC3)","CC1CCC(O)(CC1)C(C1C=CC(=CC=1)C1C=CC=CC=1)=C(O)O","InChI=1S/C21H24O3/c1-15-11-13-21(24,14-12-15)19(20(22)23)18-9-7-17(8-10-18)16-5-3-2-4-6-16/h2-10,15,22-24H,11-14H2,1H3","KRIZDEOJUOKHOB-UHFFFAOYSA-N","?","25",,"a1/thermodynamic","?","acidic",3.45
"13434","N#CC2(=CC(C1(=NN=NN1))=CC=C2)","N#CC1=CC(=CC=C1)C1NN=NN=1","InChI=1S/C8H5N5/c9-5-6-2-1-3-7(4-6)8-10-12-13-11-8/h1-4H,(H,10,11,12,13)","RFUUHOIIHXKYOQ-UHFFFAOYSA-N","?","20","spectrophotometric","a1/apparent","NH","acidic",3.45
"12181","[Se](C1(=C([N+](=O)[O-])C=CC=C1))CC(=O)O","[O-][N+](=O)C1C=CC=CC=1[Se]C=C(O)O","InChI=1S/C8H7NO4Se/c10-8(11)5-14-7-4-2-1-3-6(7)9(12)13/h1-5,10-11H","FMJHFIWAJGEJSC-UHFFFAOYSA-N","?","22","mean from 2","a1/apparent","COOH","acidic",3.45
"16948","O=C(O)C2(=C(C1(=CC=CC=C1))C=CC=C2)","OC(=O)C1C=CC=CC=1C1C=CC=CC=1","InChI=1S/C13H10O2/c14-13(15)12-9-5-4-8-11(12)10-6-2-1-3-7-10/h1-9H,(H,14,15)","ILYSAKHOYBPSPC-UHFFFAOYSA-N","?","25","potentiometric","a1/apparent","COOH","acidic",3.46
"12183","[Se](C1(=CC=C([N+](=O)[O-])C=C1))CC(=O)O","[O-][N+](=O)C1=CC=C(C=C1)[Se]C=C(O)O","InChI=1S/C8H7NO4Se/c10-8(11)5-14-7-3-1-6(2-4-7)9(12)13/h1-5,10-11H","JWZHBCUBVWDKAI-UHFFFAOYSA-N","?","22","mean from 2","a1/apparent","COOH","acidic",3.46
"10548","S(C1(=C(C=CC=C1)C))CC(=O)O","CC1C=CC=CC=1SC=C(O)O","InChI=1S/C9H10O2S/c1-7-4-2-3-5-8(7)12-6-9(10)11/h2-6,10-11H,1H3","ZJPZUQQGJWBVIZ-UHFFFAOYSA-N","?","24","mean from 2","a1/apparent","COOH","acidic",3.46
"10606","O=C(O)C1(=C(OC)C=CC=C1C)","CC1=CC=CC(OC)=C1C(O)=O","InChI=1S/C9H10O3/c1-6-4-3-5-7(12-2)8(6)9(10)11/h3-5H,1-2H3,(H,10,11)","MICCJGFEXKNBLU-UHFFFAOYSA-N","?","20","potentiometric","a/thermodynamic","?","acidic",3.46
"16364","O=C(OC1(OC(C(=O)O)C(O)C(C1O)O))C2(=CC(OC)=C(OC)C=C2)","COC1C=CC(=CC=1OC)C(=O)OC1OC(C(O)C(O)C1O)=C(O)O","InChI=1S/C15H18O10/c1-22-7-4-3-6(5-8(7)23-2)14(21)25-15-11(18)9(16)10(17)12(24-15)13(19)20/h3-5,9-11,15-20H,1-2H3","VVGDIYBHXAEYRF-UHFFFAOYSA-N","?","22","potentiometric","a/apparent","?","acidic",3.47