"Molecule name","OriginalSmiles","Canonical_QSARr","InChI_Code_QSARr","InChI Key_QSARr","Salt_Solvent (Concatenate)","temp","method","type","group","basicOrAcidic","pKa"
"11168","O2(N=C(C1(=CC=CC=C1))C=C2O)","OC1=CC(=NO1)C1C=CC=CC=1","InChI=1S/C9H7NO2/c11-9-6-8(10-12-9)7-4-2-1-3-5-7/h1-6,11H","LTZXORXEHPKYKI-UHFFFAOYSA-N","?",,"spectrophotometric","a/apparent","?","acidic",4.01
"11293","PC(C(=O)O)CCC(P)C(=O)O","OC(O)=C(P)CCC(P)=C(O)O","InChI=1S/C6H12O4P2/c7-5(8)3(11)1-2-4(12)6(9)10/h7-10H,1-2,11-12H2","QZGAWZXSKLYHGO-UHFFFAOYSA-N","?, ?, ?, ?","25","potentiometric","a1/apparent","?, ?, ?, ?","acidic",4.015000000000001
"11906","O=C(O)CCC[N+](C)(C)C","C[N+](C)(C)CCC=C(O)O","InChI=1S/C7H15NO2/c1-8(2,3)6-4-5-7(9)10/h5H,4,6H2,1-3H3,(H-,9,10)/p+1","SWJDYLQQTFXKSR-UHFFFAOYSA-O","?","25","potentiometric","a1/apparent","?","acidic",4.02
"11810","ClC1(=NN(C)C(=N1)NN=O)","CN1N=C(Cl)N=C1NN=O","InChI=1S/C3H4ClN5O/c1-9-3(6-8-10)5-2(4)7-9/h1H3,(H,5,6,7,10)","MTDCGPHKFFACFE-UHFFFAOYSA-N","?","25","spectrophotometric","a1/apparent","N-H","acidic",4.03
"10469","O=C(O)CCC[NH2+]C","CNCCC=C(O)O","InChI=1S/C5H11NO2/c1-6-4-2-3-5(7)8/h3,6-8H,2,4H2,1H3","UOIPIPHHEAFLIV-UHFFFAOYSA-N","?","24.9","spectrophotometric","a1/apparent","O-H","acidic",4.03
"14216","[Br]C1(=C(C=C(C(=O)O)C=C1)C)","CC1C=C(C=CC=1Br)C(O)=O","InChI=1S/C8H7BrO2/c1-5-4-6(8(10)11)2-3-7(5)9/h2-4H,1H3,(H,10,11)","KWVXDZLVCISXIB-UHFFFAOYSA-N","?","20","potentiometric","a/thermodynamic","?","acidic",4.03
"15779","O2(C([N+]1(=C(O)N=C(NC)C(=C1)C))CC(C2CO)O)","CC1=C[N+](C2CC(O)C(CO)O2)=C(O)N=C1NC","InChI=1S/C11H17N3O4/c1-6-4-14(11(17)13-10(6)12-2)9-3-7(16)8(5-15)18-9/h4,7-9,15-16H,3,5H2,1-2H3,(H,12,13,17)/p+1","SUURDKULGPGHGO-UHFFFAOYSA-O","?",,"spectrophotometric","a/apparent","?","acidic",4.04
"17338","ClCCC(=O)O","OC(O)=CCCl","InChI=1S/C3H5ClO2/c4-2-1-3(5)6/h1,5-6H,2H2","MSADAOXJUGEIRH-UHFFFAOYSA-N","?","18","mean from 2","a1/apparent","?","acidic",4.04
"17891","OC1(=CC=[NH+]C=C1)","OC1C=CN=CC=1","InChI=1S/C5H5NO/c7-5-1-3-6-4-2-5/h1-4H,(H,6,7)","GCNTZFIIOFTKIY-UHFFFAOYSA-N","?","24","mean from 2","a1/apparent","NH(+)","acidic",4.04
"12648","O=C(O)CC(C#N)(C)C","CC(C)(C=C(O)O)C#N","InChI=1S/C6H9NO2/c1-6(2,4-7)3-5(8)9/h3,8-9H,1-2H3","PXHCXSIIYORHHY-UHFFFAOYSA-N","?","25","conductometric","a1/apparent","?","acidic",4.04
"14245","O=C(O)C1(O)(CCCCCC1)","OC(=O)C1(O)CCCCCC1","InChI=1S/C8H14O3/c9-7(10)8(11)5-3-1-2-4-6-8/h11H,1-6H2,(H,9,10)","IVOHSGDSPNQSDJ-UHFFFAOYSA-N","?","25","conductometric","apparent","?","acidic",4.04
"14122","O=C(O)CCC#CC#CC[NH3+]","NCC#CC#CCC=C(O)O","InChI=1S/C8H9NO2/c9-7-5-3-1-2-4-6-8(10)11/h6,10-11H,4,7,9H2","SRUIXOHMXRMONN-UHFFFAOYSA-N","?","20","mean from 2","a1/apparent","?","acidic",4.05
"17733","O=C(O)CCC[NH3+]","NCCC=C(O)O","InChI=1S/C4H9NO2/c5-3-1-2-4(6)7/h2,6-7H,1,3,5H2","FVLGBQWPJCHCCG-UHFFFAOYSA-N","?","25","mean from 7","a1/apparent","COOH","acidic",4.06
"14204","ClC1(=C(C=CC(=C1)C(=O)O)C)","CC1C=CC(=CC=1Cl)C(O)=O","InChI=1S/C8H7ClO2/c1-5-2-3-6(8(10)11)4-7(5)9/h2-4H,1H3,(H,10,11)","SDKUOEOJAXGCLU-UHFFFAOYSA-N","?","20","potentiometric","a/thermodynamic","?","acidic",4.06
"13704","O=C(O)C1(=CC=C(CC(=O)N)C=C1)","N=C(O)CC1C=CC(=CC=1)C(O)=O","InChI=1S/C9H9NO3/c10-8(11)5-6-1-3-7(4-2-6)9(12)13/h1-4H,5H2,(H2,10,11)(H,12,13)","YMKXCDDRWMQOBA-UHFFFAOYSA-N","?","25",,"a1/thermodynamic","COO-H","acidic",4.06
"17503","PCC(=O)O","OC(O)=CP","InChI=1S/C2H5O2P/c3-2(4)1-5/h1,3-4H,5H2","IYUOMKWZHFURLW-UHFFFAOYSA-N","?","25","potentiometric","a1/apparent","?","acidic",4.07
"10784","[Se](=O)(O)C1(=CC([N+](=O)[O-])=CC=C1)","[O-][N+](=O)C1C=C(C=CC=1)[Se](O)=O","InChI=1S/C6H5NO4Se/c8-7(9)5-2-1-3-6(4-5)12(10)11/h1-4H,(H,10,11)","ORRAQNGIGLIGBB-UHFFFAOYSA-N","?","25","potentiometric","apparent","?","acidic",4.07
"12845","O=C(O)CC1(=COC=C1)","OC(O)=CC1=COC=C1","InChI=1S/C6H6O3/c7-6(8)3-5-1-2-9-4-5/h1-4,7-8H","RUCGLGNOVCLZCY-UHFFFAOYSA-N","?","25",,"a1/thermodynamic","?","acidic",4.07
"14205","ClC1(=C(C=C(C(=O)O)C=C1)C)","CC1C=C(C=CC=1Cl)C(O)=O","InChI=1S/C8H7ClO2/c1-5-4-6(8(10)11)2-3-7(5)9/h2-4H,1H3,(H,10,11)","MRUKIIWRMSYKML-UHFFFAOYSA-N","?","20","potentiometric","a/thermodynamic","?","acidic",4.07
"15358","O=C(O)C3(=CC1(=C(N(C)C(=C1C)CN2(C=[NH+]C=C2))C=C3))","CN1C(CN2C=NC=C2)=C(C)C2=CC(=CC=C12)C(O)=O","InChI=1S/C15H15N3O2/c1-10-12-7-11(15(19)20)3-4-13(12)17(2)14(10)8-18-6-5-16-9-18/h3-7,9H,8H2,1-2H3,(H,19,20)","MMLBTGWLFUJNGP-UHFFFAOYSA-N","?","25",,"a1/apparent","COOH","acidic",4.08
"17771","[Br]C1(C(C(=O)O)C1)","OC(O)=C1CC1Br","InChI=1S/C4H5BrO2/c5-3-1-2(3)4(6)7/h3,6-7H,1H2","BAODAIZTEAQGNE-UHFFFAOYSA-N","?","25","potentiometric","a1/apparent","?","acidic",4.09
"11288","ClC2(=C(C=1(N=NN(C=1C=C2)O))C)","CC1=C(Cl)C=CC2=C1N=NN2O","InChI=1S/C7H6ClN3O/c1-4-5(8)2-3-6-7(4)9-10-11(6)12/h2-3,12H,1H3","JYPUXYSLKKKPCY-UHFFFAOYSA-N","?","25","potentiometric","a1/apparent","OH","acidic",4.09
"10985","N1(=NNC(=N1)C2(=C(C=CC=C2)C))","CC1C=CC=CC=1C1NN=NN=1","InChI=1S/C8H8N4/c1-6-4-2-3-5-7(6)8-9-11-12-10-8/h2-5H,1H3,(H,9,10,11,12)","MTBUOESFHRORQT-UHFFFAOYSA-N","?","20","spectrophotometric","a1/apparent","NH","acidic",4.09
"16599","O=[N+]([O-])C2(=CC1(=[NH+]C=C(C(=O)OCC)C(=C1C=C2)O))","CCOC(=O)C1=CN=C2C=C(C=CC2=C1O)[N+]([O-])=O","InChI=1S/C12H10N2O5/c1-2-19-12(16)9-6-13-10-5-7(14(17)18)3-4-8(10)11(9)15/h3-6H,2H2,1H3,(H,13,15)","LYNIYLCGKJWHSC-UHFFFAOYSA-N","?","30","potentiometric","a1/apparent","H(1+)","acidic",4.1
"12610","O=[N+]([O-])C(=[N+](O)[O-])CC","CC/C(=[N+](/[O-])\O)/[N+]([O-])=O","InChI=1S/C3H6N2O4/c1-2-3(4(6)7)5(8)9/h2H2,1H3,(H,6,7)","ZETYZKDYWSQXGG-UHFFFAOYSA-N","?","25","potentiometric","apparent","?","acidic",4.1
"10970","O=C2(OC1(=C(C=CC=C1)C(=C2)O))","OC1=CC(=O)OC2C=CC=CC=21","InChI=1S/C9H6O3/c10-7-5-9(11)12-8-4-2-1-3-6(7)8/h1-5,10H","VXIXUWQIVKSKSA-UHFFFAOYSA-N","?","20","potentiometric","a1/apparent","H of OH","acidic",4.1
"13661","O=C(O)CCC[N+]1(CCCCC1)(C)","C[N+]1(CCC=C(O)O)CCCCC1","InChI=1S/C10H19NO2/c1-11(7-3-2-4-8-11)9-5-6-10(12)13/h6H,2-5,7-9H2,1H3,(H-,12,13)/p+1","KLANBWUPDFSDSU-UHFFFAOYSA-O","?","25",,"a1/apparent","?","acidic",4.11
"12839","O=C(O)C1(O)(CCCC1)","OC(=O)C1(O)CCCC1","InChI=1S/C6H10O3/c7-5(8)6(9)3-1-2-4-6/h9H,1-4H2,(H,7,8)","JJABOWZNFOCHMN-UHFFFAOYSA-N","?","25","conductometric","apparent","?","acidic",4.11
"13219","O=C(O)CCC#CC#CCCC[NH3+]","NCCCC#CC#CCC=C(O)O","InChI=1S/C10H13NO2/c11-9-7-5-3-1-2-4-6-8-10(12)13/h8,12-13H,5-7,9,11H2","CEDHIFXXGWMUCO-UHFFFAOYSA-N","?","20","mean from 3","a1/apparent","?","acidic",4.12
"17769","ClC1(C(C(=O)O)C1)","OC(O)=C1CC1Cl","InChI=1S/C4H5ClO2/c5-3-1-2(3)4(6)7/h3,6-7H,1H2","MJTFLSQJCPBTTK-UHFFFAOYSA-N","?, ?","25","potentiometric","a1/apparent","?, ?","acidic",4.12
"11345","O=C(O)CCC#CC#CCC[NH3+]","NCCC#CC#CCC=C(O)O","InChI=1S/C9H11NO2/c10-8-6-4-2-1-3-5-7-9(11)12/h7,11-12H,5-6,8,10H2","OROGSCALHOUMNI-UHFFFAOYSA-N","?","20",,"a1/apparent","?","acidic",4.12
"16438","O=C(O)C(C2(=CC=C(C1(=CC=CC=C1))C=C2))C(O)C(C)C","CC(C)C(O)C(=C(O)O)C1=CC=C(C=C1)C1=CC=CC=C1","InChI=1S/C18H20O3/c1-12(2)17(19)16(18(20)21)15-10-8-14(9-11-15)13-6-4-3-5-7-13/h3-12,17,19-21H,1-2H3","HIPSZYMRUDMAMH-UHFFFAOYSA-N","?","25","mean from 2","a1/thermodynamic","?","acidic",4.13
"14200","ClCC1(=CC=C(C(=O)O)C=C1)","OC(=O)C1C=CC(CCl)=CC=1","InChI=1S/C8H7ClO2/c9-5-6-1-3-7(4-2-6)8(10)11/h1-4H,5H2,(H,10,11)","OITNBJHJJGMFBN-UHFFFAOYSA-N","?","25",,"a1/thermodynamic","COO-H","acidic",4.13
"10584","O=C(O)C1(=CC(OC)=C(C)C=C1)","CC1C=CC(=CC=1OC)C(O)=O","InChI=1S/C9H10O3/c1-6-3-4-7(9(10)11)5-8(6)12-2/h3-5H,1-2H3,(H,10,11)","CEAVPXDEPGAVDA-UHFFFAOYSA-N","?","20","potentiometric","a/thermodynamic","?","acidic",4.13
"17621","ClCC=CC(=O)O","OC(=O)C=CCCl","InChI=1S/C4H5ClO2/c5-3-1-2-4(6)7/h1-2H,3H2,(H,6,7)","TVOMCUWVZVBDBG-UHFFFAOYSA-N","?","25","conductometric","a/thermodynamic","?","acidic",4.14
"13509","O=C(O)C1(=CC(OC(C)C)=CC=C1)","CC(C)OC1C=C(C=CC=1)C(O)=O","InChI=1S/C10H12O3/c1-7(2)13-9-5-3-4-8(6-9)10(11)12/h3-7H,1-2H3,(H,11,12)","QPVBLLQBUNVSJT-UHFFFAOYSA-N","?","20","potentiometric","thermodynamic","?","acidic",4.15
"12307","O=C(O)CCC#CC#CCCCC[NH3+]","NCCCCC#CC#CCC=C(O)O","InChI=1S/C11H15NO2/c12-10-8-6-4-2-1-3-5-7-9-11(13)14/h9,13-14H,4,6-8,10,12H2","SISJIIDIWYGFIX-UHFFFAOYSA-N","?","20","mean from 2","a1/apparent","?","acidic",4.15
"17348","PC(C(=O)O)C","CC(P)=C(O)O","InChI=1S/C3H7O2P/c1-2(6)3(4)5/h4-5H,6H2,1H3","HMEFNOVQVLYGLY-UHFFFAOYSA-N","?","25","potentiometric","a1/apparent","?","acidic",4.15
"10984","N1(=NNC(=N1)C2(=CC(=CC=C2)C))","CC1C=C(C=CC=1)C1NN=NN=1","InChI=1S/C8H8N4/c1-6-3-2-4-7(5-6)8-9-11-12-10-8/h2-5H,1H3,(H,9,10,11,12)","GWZNHKMUSLKULV-UHFFFAOYSA-N","?","20","spectrophotometric","a1/apparent","NH","acidic",4.15
"16278","ClC1(=C(NN=C(C#N)C#N)C=CC(=C1)[N+](=O)[O-])","N#CC(C#N)N=NC1C=CC(=CC=1Cl)[N+]([O-])=O","InChI=1S/C9H4ClN5O2/c10-8-3-7(15(16)17)1-2-9(8)14-13-6(4-11)5-12/h1-3,6H","ZUDGKODXCIFNPR-UHFFFAOYSA-N","?","25","mean from 2","a1/apparent","?","acidic",4.15
"10609","O=C(O)C1(=C(C(=O)C)C=CC=C1)","C=C(O)C1C=CC=CC=1C(O)=O","InChI=1S/C9H8O3/c1-6(10)7-4-2-3-5-8(7)9(11)12/h2-5,10H,1H2,(H,11,12)","DJKLUGGAQRXDON-UHFFFAOYSA-N","?","23","mean from 3","a1/apparent","H(+)","acidic",4.15
"15371","O=C(O)C(C2(=CC=C(C1(=CC=CC=C1))C=C2))C(O)CC","CCC(O)C(C1C=CC(=CC=1)C1C=CC=CC=1)=C(O)O","InChI=1S/C17H18O3/c1-2-15(18)16(17(19)20)14-10-8-13(9-11-14)12-6-4-3-5-7-12/h3-11,15,18-20H,2H2,1H3","KOUAOXUCLFGDEJ-UHFFFAOYSA-N","?","25","mean from 2","a1/thermodynamic","?","acidic",4.16
"12836","O=C(O)C1(=C(CC1)CO)","OC(=O)C1CCC=1CO","InChI=1S/C6H8O3/c7-3-4-1-2-5(4)6(8)9/h7H,1-3H2,(H,8,9)","YVNYUMJZXHVFJD-UHFFFAOYSA-N","?","25",,"a1/apparent","CO2H","acidic",4.16
"11412","FC1(=CC=C(C(=O)O)C=C1)","OC(=O)C1C=CC(F)=CC=1","InChI=1S/C7H5FO2/c8-6-3-1-5(2-4-6)7(9)10/h1-4H,(H,9,10)","BBYDXOIZLAWGSL-UHFFFAOYSA-N","?","25","potentiometric","b1/apparent","COOH","acidic",4.16
"14610","O=C(O)CCC#CC#CCCCCC[NH3+]","NCCCCCC#CC#CCC=C(O)O","InChI=1S/C12H17NO2/c13-11-9-7-5-3-1-2-4-6-8-10-12(14)15/h10,14-15H,3,5,7-9,11,13H2","HAMIRWFGOJJEGO-UHFFFAOYSA-N","?","20","mean from 2","a1/apparent","?","acidic",4.17
"16378","O=C(O)C(C2(=CC=C(C1(=CC=CC=C1))C=C2))C(O)C3(=CC(=CC=C3)C)","CC1C=C(C=CC=1)C(O)C(C1C=CC(=CC=1)C1C=CC=CC=1)=C(O)O","InChI=1S/C22H20O3/c1-15-6-5-9-19(14-15)21(23)20(22(24)25)18-12-10-17(11-13-18)16-7-3-2-4-8-16/h2-14,21,23-25H,1H3","RDYBPPLAGJXCCO-UHFFFAOYSA-N","?","25","mean from 2","a1/thermodynamic","?","acidic",4.17
"10585","O=C(O)C1(=CC(OCC)=CC=C1)","CCOC1C=C(C=CC=1)C(O)=O","InChI=1S/C9H10O3/c1-2-12-8-5-3-4-7(6-8)9(10)11/h3-6H,2H2,1H3,(H,10,11)","DTFQMPQJMDEWKJ-UHFFFAOYSA-N","?","20","potentiometric","a1/thermodynamic","?","acidic",4.17
"16376","O=C(O)C(C2(=CC=C(C1(CCCCC1))C=C2))C(O)C3(=CC=C(C)C=C3)","CC1C=CC(=CC=1)C(O)C(C1C=CC(=CC=1)C1CCCCC1)=C(O)O","InChI=1S/C22H26O3/c1-15-7-9-19(10-8-15)21(23)20(22(24)25)18-13-11-17(12-14-18)16-5-3-2-4-6-16/h7-14,16,21,23-25H,2-6H2,1H3","QYNDPZNRYBAWBO-UHFFFAOYSA-N","?","25","mean from 2","a1/thermodynamic","?","acidic",4.18
"14052","ClC2(=CC=1(N=NN(C=1C=C2)O))","ON1N=NC2C=C(Cl)C=CC1=2","InChI=1S/C6H4ClN3O/c7-4-1-2-6-5(3-4)8-9-10(6)11/h1-3,11H","KCOPVBJLGFRNOG-UHFFFAOYSA-N","?","25","potentiometric","a1/apparent","OH","acidic",4.18
"11466","O=C(O)C1(O)(CCCCC1)","OC(=O)C1(O)CCCCC1","InChI=1S/C7H12O3/c8-6(9)7(10)4-2-1-3-5-7/h10H,1-5H2,(H,8,9)","BPOVRAAUERBWFK-UHFFFAOYSA-N","?","25","mean from 2","apparent","?","acidic",4.18
"14252","O=C(O)C1(=CC=C(CO)C=C1)","OC(=O)C1=CC=C(CO)C=C1","InChI=1S/C8H8O3/c9-5-6-1-3-7(4-2-6)8(10)11/h1-4,9H,5H2,(H,10,11)","WWYFPDXEIFBNKE-UHFFFAOYSA-N","?","25",,"a1/thermodynamic","COO-H","acidic",4.18
"14177","O=C(O)C1(=C(C=C(C)C=C1)C)","CC1C=CC(C(O)=O)=C(C)C=1","InChI=1S/C9H10O2/c1-6-3-4-8(9(10)11)7(2)5-6/h3-5H,1-2H3,(H,10,11)","BKYWPNROPGQIFZ-UHFFFAOYSA-N","?","25","conductometric","a/thermodynamic","?","acidic",4.18
"10598","O=C(O)C1(=CC=C(COC)C=C1)","COCC1=CC=C(C=C1)C(O)=O","InChI=1S/C9H10O3/c1-12-6-7-2-4-8(5-3-7)9(10)11/h2-5H,6H2,1H3,(H,10,11)","OORFINRYBCDBEN-UHFFFAOYSA-N","?","25",,"a1/thermodynamic","COO-H","acidic",4.18
"10972","O=C(O)C=2(C1(=C(C=CC=C1)OC=2))","OC(=O)C1=COC2C=CC=CC=21","InChI=1S/C9H6O3/c10-9(11)7-5-12-8-4-2-1-3-6(7)8/h1-5H,(H,10,11)","BENJFDPHDCGUAQ-UHFFFAOYSA-N","?","20","spectrophotometric","a1/apparent","?","acidic",4.18
"15212","O=C(O)C(C2(=CC=C(C1(=CC=CC=C1))C=C2))C(O)C3(CCCCC3)","OC(O)=C(C(O)C1CCCCC1)C1C=CC(=CC=1)C1C=CC=CC=1","InChI=1S/C21H24O3/c22-20(18-9-5-2-6-10-18)19(21(23)24)17-13-11-16(12-14-17)15-7-3-1-4-8-15/h1,3-4,7-8,11-14,18,20,22-24H,2,5-6,9-10H2","HUZLHXVYPNHGIV-UHFFFAOYSA-N","?","25","mean from 2","a1/thermodynamic","?","acidic",4.19
"16379","O=C(O)C(C2(=CC=C(C1(=CC=CC=C1))C=C2))C(O)C3(=C(C=CC=C3)C)","CC1C=CC=CC=1C(O)C(C1C=CC(=CC=1)C1C=CC=CC=1)=C(O)O","InChI=1S/C22H20O3/c1-15-7-5-6-10-19(15)21(23)20(22(24)25)18-13-11-17(12-14-18)16-8-3-2-4-9-16/h2-14,21,23-25H,1H3","HCNCHHUOCPKIPM-UHFFFAOYSA-N","?","25","mean from 2","a1/thermodynamic","?","acidic",4.19
"11404","S1(C(=CC(=C1)C(=O)O)CC)","CCC1=CC(=CS1)C(O)=O","InChI=1S/C7H8O2S/c1-2-6-3-5(4-10-6)7(8)9/h3-4H,2H2,1H3,(H,8,9)","WGPALAIKGVKNGT-UHFFFAOYSA-N","?","25","potentiometric","a/apparent","?","acidic",4.19
"12254","O=[N+]([O-])C1(=C(C=C(O)C(=C1)C)C(C)C)","CC1=CC(=C(C=C1O)C(C)C)[N+]([O-])=O","InChI=1S/C10H13NO3/c1-6(2)8-5-10(12)7(3)4-9(8)11(13)14/h4-6,12H,1-3H3","RLRCXCWTFYFSHS-UHFFFAOYSA-N","?","25","potentiometric","apparent","?","acidic",4.2
"13269","O=C2(OC1(=C(C(=CC=C1)C)C(=C2)O))","CC1=CC=CC2OC(=O)C=C(O)C=21","InChI=1S/C10H8O3/c1-6-3-2-4-8-10(6)7(11)5-9(12)13-8/h2-5,11H,1H3","SGMVRLBDQDWGRZ-UHFFFAOYSA-N","?","20","potentiometric","a1/apparent","H of OH","acidic",4.2
"15590","O=C(O)C1(=CC=C(NC(C#N)=C(C#N)C#N)C=C1)","N#CC(=NC1C=CC(=CC=1)C(O)=O)C(C#N)C#N","InChI=1S/C12H6N4O2/c13-5-9(6-14)11(7-15)16-10-3-1-8(2-4-10)12(17)18/h1-4,9H,(H,17,18)","GDZVARYUJQLMJZ-UHFFFAOYSA-N","?","25","spectrophotometric","a1/apparent","?","acidic",4.2
"16576","O=C(C1(=CC(=CC=C1)C(C(=O)O)C))C2(=CC=CC=C2)","CC(C1C=C(C=CC=1)C(=O)C1C=CC=CC=1)=C(O)O","InChI=1S/C16H14O3/c1-11(16(18)19)13-8-5-9-14(10-13)15(17)12-6-3-2-4-7-12/h2-10,18-19H,1H3","KKINPCMIELWESU-UHFFFAOYSA-N","?","25","mean from 3","a1/apparent","COOH","acidic",4.2
"14805","[Br]C1(=C(O)C([Br])=CC(=C1)C2(OS(=O)(=O)C3(=C2C=CC=C3))(C4(=CC([Br])=C(O)C(=C4)[Br])))","OC1C(Br)=CC(=CC=1Br)C1(OS(=O)(=O)C2C=CC=CC1=2)C1=CC(Br)=C(O)C(Br)=C1","InChI=1S/C19H10Br4O5S/c20-12-5-9(6-13(21)17(12)24)19(10-7-14(22)18(25)15(23)8-10)11-3-1-2-4-16(11)29(26,27)28-19/h1-8,24-25H","UDSAIICHUKSCKT-UHFFFAOYSA-N","?","25","spectrophotometric","a2/thermodynamic","OH","acidic",4.2
"10340","O=C(O)C=CC#CC","CC#CC=CC(O)=O","InChI=1S/C6H6O2/c1-2-3-4-5-6(7)8/h4-5H,1H3,(H,7,8)","LQEYNFDYEHLTBP-UHFFFAOYSA-N","?","25","potentiometric","a/apparent","?","acidic",4.2
"12765","O=C1(C(CC(C1)=O)(C)C)","CC1(C)CC(=O)C=C1O","InChI=1S/C7H10O2/c1-7(2)4-5(8)3-6(7)9/h3,9H,4H2,1-2H3","YRLQHQAYLBTLSD-UHFFFAOYSA-N","?","20","spectrophotometric","a/apparent","?","acidic",4.2
"14237","O=C1(C(C(=O)CC(C1)=O)(C)C)","CC1(C)C(O)=CC(=O)C=C1O","InChI=1S/C8H10O3/c1-8(2)6(10)3-5(9)4-7(8)11/h3-4,10-11H,1-2H3","ZITLVRQXJUFZOO-UHFFFAOYSA-N","?","25","potentiometric","1/apparent","?","acidic",4.2
"12098","O=C(O)C1(=CC(OC)=C(O)C(=C1)OC)","COC1=CC(=CC(OC)=C1O)C(O)=O","InChI=1S/C9H10O5/c1-13-6-3-5(9(11)12)4-7(14-2)8(6)10/h3-4,10H,1-2H3,(H,11,12)","JMSVCTWVEWCHDZ-UHFFFAOYSA-N","?","20","potentiometric","a1/thermodynamic","?","acidic",4.2
"15197","O=C(O)CCC#CC#CCCCCCC[NH3+]","NCCCCCCC#CC#CCC=C(O)O","InChI=1S/C13H19NO2/c14-12-10-8-6-4-2-1-3-5-7-9-11-13(15)16/h11,15-16H,2,4,6,8-10,12,14H2","SLAGTTQWSMEAPV-UHFFFAOYSA-N","?","20","mean from 2","a1/apparent","?","acidic",4.21
"16493","S(=O)(=O)(NC(=O)OCC1(=CC=CC=C1))C2(=CC=C(C)C=C2)","CC1=CC=C(C=C1)S(=O)(=O)NC(=O)OCC1C=CC=CC=1","InChI=1S/C15H15NO4S/c1-12-7-9-14(10-8-12)21(18,19)16-15(17)20-11-13-5-3-2-4-6-13/h2-10H,11H2,1H3,(H,16,17)","VVJROXSMRPGOPI-UHFFFAOYSA-N","?","25","potentiometric","a1/apparent","NH","acidic",4.21
"12862","O=C(O)CC1(=NN=NN1)","OC(O)=CC1NN=NN=1","InChI=1S/C3H4N4O2/c8-3(9)1-2-4-6-7-5-2/h1,8-9H,(H,4,5,6,7)","NOMDAZVPQDJPLG-UHFFFAOYSA-N","?, ?","25","potentiometric","a1/apparent","COOH, NH","acidic",4.21
"11772","O[N+](C1(=CC=CC=C1))(C)C","C[N+](C)(O)C1C=CC=CC=1","InChI=1S/C8H12NO/c1-9(2,10)8-6-4-3-5-7-8/h3-7,10H,1-2H3/q+1","IDJYJIGKAWDPEZ-UHFFFAOYSA-N","?","20","potentiometric","a/thermodynamic","?","acidic",4.21
"15992","FC12(CC3(C(=O)O)(CC(C1)CC(C2)C3))","OC(=O)C12CC3(F)CC(C1)CC(C2)C3","InChI=1S/C11H15FO2/c12-11-4-7-1-8(5-11)3-10(2-7,6-11)9(13)14/h7-8H,1-6H2,(H,13,14)","SJULXDNAWKQQEV-UHFFFAOYSA-N","?",,"potentiometric","a1/apparent","COOH","acidic",4.22
"15822","O=C1(C(=C(O)C(CC=C(C)C)=C(C1(O)CC=C(C)C)O)C(=O)CC(C)C)","CC(C)=CCC1(O)C(=O)C(=C(O)C(CC=C(C)C)=C1O)C(O)=CC(C)C","InChI=1S/C21H30O5/c1-12(2)7-8-15-18(23)17(16(22)11-14(5)6)20(25)21(26,19(15)24)10-9-13(3)4/h7,9,11,14,22-24,26H,8,10H2,1-6H3","VTNCVRMZIVFPCY-UHFFFAOYSA-N","?","25","potentiometric","a/apparent","?","acidic",4.22
"12251","O=C(N)C(C1(=CC=CC=C1))CC(=O)O","N=C(O)C(CC(O)=O)C1C=CC=CC=1","InChI=1S/C10H11NO3/c11-10(14)8(6-9(12)13)7-4-2-1-3-5-7/h1-5,8H,6H2,(H2,11,14)(H,12,13)","PPOIRHDTIDWACH-UHFFFAOYSA-N","?","25","mean from 2","thermodynamic","?","acidic",4.23
"17347","PCCC(=O)O","OC(O)=CCP","InChI=1S/C3H7O2P/c4-3(5)1-2-6/h1,4-5H,2,6H2","ASZGGXCLEPGBAO-UHFFFAOYSA-N","?","25","potentiometric","a1/apparent","?","acidic",4.23
"13300","O(C2(=CC=C(C1(=NN=NN1))C=C2))C","COC1C=CC(=CC=1)C1NN=NN=1","InChI=1S/C8H8N4O/c1-13-7-4-2-6(3-5-7)8-9-11-12-10-8/h2-5H,1H3,(H,9,10,11,12)","KZGGHPBTKGLWQL-UHFFFAOYSA-N","?","20","spectrophotometric","a1/apparent","NH","acidic",4.23
"14199","S(C1(=CC=C(C(=O)O)C=C1))C","CSC1C=CC(=CC=1)C(O)=O","InChI=1S/C8H8O2S/c1-11-7-4-2-6(3-5-7)8(9)10/h2-5H,1H3,(H,9,10)","KWHCPERWLHBLOT-UHFFFAOYSA-N","?","25","mean from 2","a1/apparent","COOH","acidic",4.23
"10586","O=C(O)C(C1(=CC=CC=C1))CO","OC(O)=C(CO)C1C=CC=CC=1","InChI=1S/C9H10O3/c10-6-8(9(11)12)7-4-2-1-3-5-7/h1-5,10-12H,6H2","PRIXJEKVJGPKFL-UHFFFAOYSA-N","?",,"potentiometric","a/apparent","?","acidic",4.23
"13521","O=C(O)C1(=C(OC(C)C)C=CC=C1)","CC(C)OC1C=CC=CC=1C(O)=O","InChI=1S/C10H12O3/c1-7(2)13-9-6-4-3-5-8(9)10(11)12/h3-7H,1-2H3,(H,11,12)","WWPLDSOFBMZGIJ-UHFFFAOYSA-N","?","20","potentiometric","thermodynamic","?","acidic",4.24
"13498","[Si](C1(=CC(C(=O)O)=CC=C1))(C)(C)C","C[Si](C)(C)C1=CC(=CC=C1)C(O)=O","InChI=1S/C10H14O2Si/c1-13(2,3)9-6-4-5-8(7-9)10(11)12/h4-7H,1-3H3,(H,11,12)","IGKYAVPWIPSEPG-UHFFFAOYSA-N","?","25","potentiometric","a1/thermodynamic","?","acidic",4.24
"12329","O=C(O)CC=1(C=2(C(C=CC=1)=CC=CC=2))","OC(O)=CC1=CC=CC2=CC=CC=C21","InChI=1S/C12H10O2/c13-12(14)8-10-6-3-5-9-4-1-2-7-11(9)10/h1-8,13-14H","UNYCJINQUAWGRF-UHFFFAOYSA-N","?","25","mean from 3","a1/apparent","COOH","acidic",4.24
"16375","O=C(O)C(C2(=CC=C(C1(=CC=CC=C1))C=C2))C(O)C3(=CC=C(C)C=C3)","CC1C=CC(=CC=1)C(O)C(C1C=CC(=CC=1)C1C=CC=CC=1)=C(O)O","InChI=1S/C22H20O3/c1-15-7-9-19(10-8-15)21(23)20(22(24)25)18-13-11-17(12-14-18)16-5-3-2-4-6-16/h2-14,21,23-25H,1H3","KKNHMYNQSGGOEI-UHFFFAOYSA-N","?","25","mean from 2","a1/thermodynamic","?","acidic",4.24
"12800","S1(C(=CC(=C1)C(=O)O)C)","CC1=CC(=CS1)C(O)=O","InChI=1S/C6H6O2S/c1-4-2-5(3-9-4)6(7)8/h2-3H,1H3,(H,7,8)","VFORWJLUXKGLAH-UHFFFAOYSA-N","?","25","potentiometric","a1/apparent","?","acidic",4.24
"14066","P(=O)(O)(C(C)(C)C)C(C)(C)C","CC(C)(C)P(O)(=O)C(C)(C)C","InChI=1S/C8H19O2P/c1-7(2,3)11(9,10)8(4,5)6/h1-6H3,(H,9,10)","GZWFFPNAVPOUBD-UHFFFAOYSA-N","?","25","potentiometric","apparent","?","acidic",4.24
"12101","O=C(O)C1(=CC(OCCCC)=CC=C1)","CCCCOC1C=C(C=CC=1)C(O)=O","InChI=1S/C11H14O3/c1-2-3-7-14-10-6-4-5-9(8-10)11(12)13/h4-6,8H,2-3,7H2,1H3,(H,12,13)","DNGXQBZMSWQUKS-UHFFFAOYSA-N","?","20","potentiometric","thermodynamic","?","acidic",4.25
"15210","O=C(O)C(C2(=CC=C(C1(=CC=CC=C1))C=C2))C(O)C3(=CC=CC=C3)","OC(O)=C(C(O)C1C=CC=CC=1)C1C=CC(=CC=1)C1C=CC=CC=1","InChI=1S/C21H18O3/c22-20(18-9-5-2-6-10-18)19(21(23)24)17-13-11-16(12-14-17)15-7-3-1-4-8-15/h1-14,20,22-24H","LHMQKHCDNXJBJI-UHFFFAOYSA-N","?","25","mean from 2","a1/thermodynamic","?","acidic",4.25
"17489","O=C(O)C=C","C=CC(O)=O","InChI=1S/C3H4O2/c1-2-3(4)5/h2H,1H2,(H,4,5)","NIXOWILDQLNWCW-UHFFFAOYSA-N","?","25","mean from 4","apparent","?","acidic",4.25