"Molecule name","OriginalSmiles","Canonical_QSARr","InChI_Code_QSARr","InChI Key_QSARr","Salt_Solvent (Concatenate)","temp","method","type","group","basicOrAcidic","pKa"
"13519","O=C(O)C1(=C(C=C(OCC)C=C1)C)","CC1C=C(C=CC=1C(O)=O)OCC","InChI=1S/C10H12O3/c1-3-13-8-4-5-9(10(11)12)7(2)6-8/h4-6H,3H2,1-2H3,(H,11,12)","NPJNAEZUNKBQET-UHFFFAOYSA-N","?","20","potentiometric","a/thermodynamic","?","acidic",4.54
"14198","S1(C(=CC=C1)CCCC(=O)O)","OC(O)=CCCC1=CC=CS1","InChI=1S/C8H10O2S/c9-8(10)5-1-3-7-4-2-6-11-7/h2,4-6,9-10H,1,3H2","LZUXYMUIGBYYCS-UHFFFAOYSA-N","?","25",,"a1/thermodynamic","?","acidic",4.54
"11469","O=C(O)C1(=C(OC=C1C)C)","CC1OC=C(C)C=1C(O)=O","InChI=1S/C7H8O3/c1-4-3-10-5(2)6(4)7(8)9/h3H,1-2H3,(H,8,9)","JFXXYKVSLHRBAA-UHFFFAOYSA-N","?","20","potentiometric","a/apparent","?","acidic",4.55
"13526","O=C(O)C1(=CC=C(OC(C)C)C=C1)","CC(C)OC1C=CC(=CC=1)C(O)=O","InChI=1S/C10H12O3/c1-7(2)13-9-5-3-8(4-6-9)10(11)12/h3-7H,1-2H3,(H,11,12)","ZVERWTXKKWSSHH-UHFFFAOYSA-N","?","20","mean from 2","a1/apparent","?","acidic",4.57
"11287","ClC1(=C(C=C2(N=NN(C2(=C1))O))C)","CC1C=C2N=NN(O)C2=CC=1Cl","InChI=1S/C7H6ClN3O/c1-4-2-6-7(3-5(4)8)11(12)10-9-6/h2-3,12H,1H3","LNHHUBMHUQEWIJ-UHFFFAOYSA-N","?","25","potentiometric","a1/apparent","OH","acidic",4.57
"11839","O=C(O)C(C=C=CC)(C)C","CC=C=CC(C)(C)C(O)=O","InChI=1S/C8H12O2/c1-4-5-6-8(2,3)7(9)10/h4,6H,1-3H3,(H,9,10)","LVGSYIPUWLQTMN-UHFFFAOYSA-N","?","25","potentiometric","a1/apparent","?","acidic",4.58
"12693","O=C(N)C(CC(=O)O)C","CC(CC(O)=O)C(=N)O","InChI=1S/C5H9NO3/c1-3(5(6)9)2-4(7)8/h3H,2H2,1H3,(H2,6,9)(H,7,8)","OAMWNDMMJLINIH-UHFFFAOYSA-N","?","25","conductometric","apparent","?","acidic",4.59
"16780","O=C(OC)C1(N(C(=O)C)CC(C1CC(=O)O)C(=C)C)","CC(=C)C1CN(C(C1C=C(O)O)=C(O)OC)C(=C)O","InChI=1S/C13H19NO5/c1-7(2)10-6-14(8(3)15)12(13(18)19-4)9(10)5-11(16)17/h5,9-10,15-18H,1,3,6H2,2,4H3","SRQISOPLPWWSDZ-UHFFFAOYSA-N","?",,,"a/apparent","?","acidic",4.6
"10349","O=C(O)CC=C(C)C","CC(C)=CC=C(O)O","InChI=1S/C6H10O2/c1-5(2)3-4-6(7)8/h3-4,7-8H,1-2H3","OLJAGKMCNKVRBF-UHFFFAOYSA-N","?","25","conductometric","apparent","?","acidic",4.6
"12597","O=C(C(C(=O)C)C=O)C","C=C(O)C(C=O)C(=C)O","InChI=1S/C6H8O3/c1-4(8)6(3-7)5(2)9/h3,6,8-9H,1-2H2","BPXXAMGNXWDBTO-UHFFFAOYSA-N","?",,,"a/apparent","?","acidic",4.6
"12341","O=C(O)C2(C(C1(=CC=C(OC)C=C1))C2)","COC1C=CC(=CC=1)C1CC1=C(O)O","InChI=1S/C11H12O3/c1-14-8-4-2-7(3-5-8)9-6-10(9)11(12)13/h2-5,9,12-13H,6H2,1H3","VWXDHIBKKSHNMH-UHFFFAOYSA-N","?","25","potentiometric","a/apparent","?","acidic",4.62
"10603","O=C(O)C1(C(C(C(=O)C)C1)(C)C)","CC1(C)C(CC1=C(O)O)C(=C)O","InChI=1S/C9H14O3/c1-5(10)6-4-7(8(11)12)9(6,2)3/h6,10-12H,1,4H2,2-3H3","WVMIAOCBNFMOMR-UHFFFAOYSA-N","?",,"potentiometric","a/apparent","?","acidic",4.63
"11473","O=C(O)C1(=C(OC(=C1)C)C)","CC1=CC(C(O)=O)=C(C)O1","InChI=1S/C7H8O3/c1-4-3-6(7(8)9)5(2)10-4/h3H,1-2H3,(H,8,9)","CNTHHNPBADVTRY-UHFFFAOYSA-N","?","20","potentiometric","a/apparent","?","acidic",4.64
"14609","O=C(O)CCCCCCCCCCC[NH3+]","NCCCCCCCCCCC=C(O)O","InChI=1S/C12H25NO2/c13-11-9-7-5-3-1-2-4-6-8-10-12(14)15/h10,14-15H,1-9,11,13H2","TWFFXDVWVGDFKF-UHFFFAOYSA-N","?","25","potentiometric","apparent","CO2H","acidic",4.65
"16481","S(=O)(=O)(NC(=O)C1(=CC(=C(C)C=C1)C))C2(=CC=C(N)C=C2)","CC1C=CC(=CC=1C)C(=O)NS(=O)(=O)C1C=CC(N)=CC=1","InChI=1S/C15H16N2O3S/c1-10-3-4-12(9-11(10)2)15(18)17-21(19,20)14-7-5-13(16)6-8-14/h3-9H,16H2,1-2H3,(H,17,18)","LFAXYIHYMGEIHW-UHFFFAOYSA-N","?","25","potentiometric","a/apparent","?","acidic",4.66
"12486","O=C(O)CC=2(C1(=C(C=CC=C1)NC=2C))","CC1NC2C=CC=CC=2C=1C=C(O)O","InChI=1S/C11H11NO2/c1-7-9(6-11(13)14)8-4-2-3-5-10(8)12-7/h2-6,12-14H,1H3","FQRMOJLMTDRNLC-UHFFFAOYSA-N","?","25",,"apparent","?","acidic",4.67
"10943","O=C(O)C2(C(C1(=CC=CC=C1))C2)","OC(O)=C1CC1C1C=CC=CC=1","InChI=1S/C10H10O2/c11-10(12)9-6-8(9)7-4-2-1-3-5-7/h1-5,8,11-12H,6H2","GDPWNMCWBQUDDH-UHFFFAOYSA-N","?, ?","25","potentiometric","a/apparent","?, ?","acidic",4.68
"17599","O=C(O)C=CCC","CCC=CC(O)=O","InChI=1S/C5H8O2/c1-2-3-4-5(6)7/h3-4H,2H2,1H3,(H,6,7)","YIYBQIKDCADOSF-UHFFFAOYSA-N","?","25","conductometric","thermodynamic","?","acidic",4.69
"17227","O=C(O)C","C=C(O)O","InChI=1S/C2H4O2/c1-2(3)4/h3-4H,1H2","LONYOMRPNGXPGP-UHFFFAOYSA-N","?","23","mean from 39","a1/apparent","O-H","acidic",4.7
"14631","ClC1(=C(NN=C(C#N)C#N)C(Cl)=CC=C1)","N#CC(C#N)N=NC1C(Cl)=CC=CC=1Cl","InChI=1S/C9H4Cl2N4/c10-7-2-1-3-8(11)9(7)15-14-6(4-12)5-13/h1-3,6H","AEQGCSSRAKAFGV-UHFFFAOYSA-N","?","25","mean from 2","a1/apparent","?","acidic",4.7
"13530","O=C(O)CCC1(=CC=C(OC)C=C1)","COC1C=CC(CC=C(O)O)=CC=1","InChI=1S/C10H12O3/c1-13-9-5-2-8(3-6-9)4-7-10(11)12/h2-3,5-7,11-12H,4H2,1H3","UYRSBFUVCJDPFU-UHFFFAOYSA-N","?","25","mean from 2","thermodynamic","?","acidic",4.72
"10522","O=C(O)CCC1(=CC=C(C)C=C1)","CC1C=CC(CC=C(O)O)=CC=1","InChI=1S/C10H12O2/c1-8-2-4-9(5-3-8)6-7-10(11)12/h2-5,7,11-12H,6H2,1H3","QHAOMALKXSIJKN-UHFFFAOYSA-N","?","25","potentiometric","a/apparent","?","acidic",4.74
"12282","O=C(O)CCC(O)CC#CC#CC#C","C#CC#CC#CCC(O)CC=C(O)O","InChI=1S/C11H10O3/c1-2-3-4-5-6-7-10(12)8-9-11(13)14/h1,9-10,12-14H,7-8H2","IKJBDIONANICDI-UHFFFAOYSA-N","?",,,"a/apparent","?","acidic",4.75
"11475","O=C(O)C1(CCC(O)CC1)","OC(O)=C1CCC(O)CC1","InChI=1S/C7H12O3/c8-6-3-1-5(2-4-6)7(9)10/h6,8-10H,1-4H2","CYADOPHGTNQRGH-UHFFFAOYSA-N","?, ?","25","potentiometric","a/thermodynamic","?, ?","acidic",4.76
"14594","O=C(O)C(C(C(CO)CC)CCC)CC","CCC(C(CCC)C(CO)CC)=C(O)O","InChI=1S/C12H24O3/c1-4-7-11(9(5-2)8-13)10(6-3)12(14)15/h9,11,13-15H,4-8H2,1-3H3","GJSAWXOOSILYME-UHFFFAOYSA-N","?","25","potentiometric","a1/apparent","-COOH","acidic",4.78
"16270","O=C(N)C(C1(=CC=CC=C1))CCCCC(=O)O","N=C(O)C(CCCC=C(O)O)C1C=CC=CC=1","InChI=1S/C13H17NO3/c14-13(17)11(8-4-5-9-12(15)16)10-6-2-1-3-7-10/h1-3,6-7,9,11,15-16H,4-5,8H2,(H2,14,17)","SHQWBDZSVYQOGE-UHFFFAOYSA-N","?","25","conductometric","a/apparent","?","acidic",4.79
"12794","[Se](=O)(O)C1(=CC=CC=C1)","O[Se](=O)C1C=CC=CC=1","InChI=1S/C6H6O2Se/c7-9(8)6-4-2-1-3-5-6/h1-5H,(H,7,8)","WIHKGDVGLJJAMC-UHFFFAOYSA-N","?","25","potentiometric","a1/apparent","?","acidic",4.79
"17911","OC=1([NH+]=C(N)NC=1)","NC1NC=C(O)N=1","InChI=1S/C3H5N3O/c4-3-5-1-2(7)6-3/h1,7H,(H3,4,5,6)","AEGRGDYHZFLAGY-UHFFFAOYSA-N","?","25","potentiometric","a1/apparent","?","acidic",4.8
"11377","O=C(O)CC1(CCCCC1)","OC(O)=CC1CCCCC1","InChI=1S/C8H14O2/c9-8(10)6-7-4-2-1-3-5-7/h6-7,9-10H,1-5H2","CXTNJDVIRSJCSI-UHFFFAOYSA-N","?","22","mean from 3","a1/apparent","?","acidic",4.8
"17066","O=C(O)CCCC=2(C1(=C(C=CC=C1)NC=2))","OC(O)=CCCC1=CNC2C=CC=CC1=2","InChI=1S/C12H13NO2/c14-12(15)7-3-4-9-8-13-11-6-2-1-5-10(9)11/h1-2,5-8,13-15H,3-4H2","QHKUTYAYENKOEC-UHFFFAOYSA-N","?",,"mean from 2","a/apparent","?","acidic",4.82
"13532","O=C(O)CC1(C(C(C(O)C)C1)(C)C)","CC(O)C1CC(C=C(O)O)C1(C)C","InChI=1S/C10H18O3/c1-6(11)8-4-7(5-9(12)13)10(8,2)3/h5-8,11-13H,4H2,1-3H3","SQPRSGBCPLHQNC-UHFFFAOYSA-N","?","20","potentiometric","a/thermodynamic","?","acidic",4.83
"16170","ClC1(=C(Cl)C=C(Cl)C(=C1C[NH+]2(CCOCC2))O)","OC1C(CN2CCOCC2)=C(Cl)C(Cl)=CC=1Cl","InChI=1S/C11H12Cl3NO2/c12-8-5-9(13)11(16)7(10(8)14)6-15-1-3-17-4-2-15/h5,16H,1-4,6H2","VEFSPVXJOXOAAZ-UHFFFAOYSA-N","?","25","spectrophotometric","a1/apparent","OH","acidic",4.84
"15725","P(=O)(O)([O-])C=1([NH+]=C2(C(O)C(O)C(C(N2(C=1))CO)O))","OCC1C(O)C(O)C(O)C2=NC(=CN21)P(O)(O)=O","InChI=1S/C8H13N2O7P/c11-2-3-5(12)6(13)7(14)8-9-4(1-10(3)8)18(15,16)17/h1,3,5-7,11-14H,2H2,(H2,15,16,17)","HURIBEZHYQHUKI-UHFFFAOYSA-N","?","25",,"a2/apparent","O-Na","acidic",4.84
"12208","S(=O)(=O)(NC1(=CC=CC=C1))C(F)(F)F","O=S(=O)(NC1C=CC=CC=1)C(F)(F)F","InChI=1S/C7H6F3NO2S/c8-7(9,10)14(12,13)11-6-4-2-1-3-5-6/h1-5,11H","OXDSKEQSEGDAFN-UHFFFAOYSA-N","?","25","mean from 2","a1/apparent","N(1+)-H","acidic",4.85
"12570","O=C(O)CCCCCC","CCCCCC=C(O)O","InChI=1S/C7H14O2/c1-2-3-4-5-6-7(8)9/h6,8-9H,2-5H2,1H3","PSHLNTOPOCHINM-UHFFFAOYSA-N","?","18","mean from 2","apparent","?","acidic",4.86
"13484","O=C(O)CCCCC1(=CC=CC=C1)","OC(O)=CCCCC1C=CC=CC=1","InChI=1S/C11H14O2/c12-11(13)9-5-4-8-10-6-2-1-3-7-10/h1-3,6-7,9,12-13H,4-5,8H2","JAKXODFQWXJYOG-UHFFFAOYSA-N","?","20","potentiometric","a/apparent","?","acidic",4.88
"11429","[Se](=O)(O)C1(=CC=C(C)C=C1)","CC1=CC=C(C=C1)[Se](O)=O","InChI=1S/C7H8O2Se/c1-6-2-4-7(5-3-6)10(8)9/h2-5H,1H3,(H,8,9)","JFVKYVZJYVJLSP-UHFFFAOYSA-N","?","25","potentiometric","apparent","?","acidic",4.88
"11297","O=C(O)CCCCCCCCC","CCCCCCCCC=C(O)O","InChI=1S/C10H20O2/c1-2-3-4-5-6-7-8-9-10(11)12/h9,11-12H,2-8H2,1H3","OHSDWFICZQQBIV-UHFFFAOYSA-N","?","25",,"a1/apparent","COOH","acidic",4.89
"11843","[Si](CCCC(=O)O)(C)(C)C","C[Si](C)(C)CCC=C(O)O","InChI=1S/C7H16O2Si/c1-10(2,3)6-4-5-7(8)9/h5,8-9H,4,6H2,1-3H3","BVGVKANBNDUVHH-UHFFFAOYSA-N","?","25","potentiometric","a/apparent","?","acidic",4.89
"14595","O=C(O)CCC(O)C=C=CC#CC#CC","CC#CC#CC=C=CC(O)CC=C(O)O","InChI=1S/C12H12O3/c1-2-3-4-5-6-7-8-11(13)9-10-12(14)15/h6,8,10-11,13-15H,9H2,1H3","KVCLGJKWHCNTJZ-UHFFFAOYSA-N","?",,,"apparent","?","acidic",4.9
"14327","O=NC(=NO)C1(=CC=CC=C1)","O=NC(N=O)C1C=CC=CC=1","InChI=1S/C7H6N2O2/c10-8-7(9-11)6-4-2-1-3-5-6/h1-5,7H","PRQKTDDQERMAHO-UHFFFAOYSA-N","?","20","potentiometric","a1/apparent","?","acidic",4.9
"11210","OC=1(C=2(C(C=[N+](C=1)C)=CC=CC=2))","C[N+]1=CC2=CC=CC=C2C(O)=C1","InChI=1S/C10H9NO/c1-11-6-8-4-2-3-5-9(8)10(12)7-11/h2-7H,1H3/p+1","TXSIGDOOBYFEIT-UHFFFAOYSA-O","?","20","potentiometric","a/apparent","?","acidic",4.93
"13724","O=C(O)C12(CC3(CC(C1)CC(C2)C3))","OC(=O)C12CC3CC(C1)CC(C2)C3","InChI=1S/C11H16O2/c12-10(13)11-4-7-1-8(5-11)3-9(2-7)6-11/h7-9H,1-6H2,(H,12,13)","JIMXXGFJRDUSRO-UHFFFAOYSA-N","?","25","mean from 2","a1/apparent","COOH","acidic",4.95
"10291","OC1(=C[N+](=CC=C1)C)","C[N+]1C=C(O)C=CC=1","InChI=1S/C6H7NO/c1-7-4-2-3-6(8)5-7/h2-5H,1H3/p+1","FZVAZYLFYPULKX-UHFFFAOYSA-O","?","20","mean from 3","a/apparent","?","acidic",4.96
"14061","ClC[Si](CCCC(=O)O)(C)C","C[Si](C)(CCl)CCC=C(O)O","InChI=1S/C7H15ClO2Si/c1-11(2,6-8)5-3-4-7(9)10/h4,9-10H,3,5-6H2,1-2H3","URGVMQJDMMAQEA-UHFFFAOYSA-N","?","25","potentiometric","a1/apparent","?","acidic",4.97
"13186","ClCCC[Si](CCCC(=O)O)(C)C","C[Si](C)(CCCCl)CCC=C(O)O","InChI=1S/C9H19ClO2Si/c1-13(2,8-4-6-10)7-3-5-9(11)12/h5,11-12H,3-4,6-8H2,1-2H3","IJFLGSFFJQOASB-UHFFFAOYSA-N","?","25","potentiometric","a1/apparent","?","acidic",4.98
"14672","O=[N+]([O-])C1(=CC=C(C(C(=O)O)=CC)C=C1)","CC=C(C(O)=O)C1C=CC(=CC=1)[N+]([O-])=O","InChI=1S/C10H9NO4/c1-2-9(10(12)13)7-3-5-8(6-4-7)11(14)15/h2-6H,1H3,(H,12,13)","DKIDVFLMXDKXAF-UHFFFAOYSA-N","?",,,"a/apparent","?","acidic",5.0
"13051","O=C(O)C=1(NC(C)=CC=1)","CC1=CC=C(N1)C(O)=O","InChI=1S/C6H7NO2/c1-4-2-3-5(7-4)6(8)9/h2-3,7H,1H3,(H,8,9)","UFYABCWJPZTWHA-UHFFFAOYSA-N","?",,"potentiometric","a/apparent","?","acidic",5.0
"15454","O=C(O)CCCCCCCCCCCCCCCCC","CCCCCCCCCCCCCCCCC=C(O)O","InChI=1S/C18H36O2/c1-2-3-4-5-6-7-8-9-10-11-12-13-14-15-16-17-18(19)20/h17,19-20H,2-16H2,1H3","RVSCBJNWEMQNJZ-UHFFFAOYSA-N","?","25",,"a1/apparent","COOH","acidic",5.01
"10581","O=C1(C(O)=CC=C(C=C1)C(=O)C)","C=C(O)C1C=CC(=O)C(O)=CC=1","InChI=1S/C9H8O3/c1-6(10)7-2-4-8(11)9(12)5-3-7/h2-5,10H,1H2,(H,11,12)","FAUGANVBFBZWNJ-UHFFFAOYSA-N","?","25","spectrophotometric","a1/apparent","?","acidic",5.01
"17765","O=C(O)C1(C(C)C1)","CC1CC1=C(O)O","InChI=1S/C5H8O2/c1-3-2-4(3)5(6)7/h3,6-7H,2H2,1H3","SMEFGQDLISTIHL-UHFFFAOYSA-N","?","25","potentiometric","a1/apparent","?","acidic",5.03
"14726","OC1(=NC(=[NH+]C(=C1CCCC)C)NCC)","CC1N=C(NCC)N=C(O)C=1CCCC","InChI=1S/C11H19N3O/c1-4-6-7-9-8(3)13-11(12-5-2)14-10(9)15/h4-7H2,1-3H3,(H2,12,13,14,15)","BBXXLROWFHWFQY-UHFFFAOYSA-N","?","24","mean from 2","a1/apparent","-OH","acidic",5.04
"14136","S(=O)(=O)(NC(=O)N)CC(=O)N","NC(=O)NS(=O)(=O)CC(=N)O","InChI=1S/C3H7N3O4S/c4-2(7)1-11(9,10)6-3(5)8/h1H2,(H2,4,7)(H3,5,6,8)","WNVLDYVOMHCCOK-UHFFFAOYSA-N","?","25","potentiometric","a1/apparent","?","acidic",5.05
"11299","[Si](CCCCCC(=O)O)(C)(C)C","C[Si](C)(C)CCCCC=C(O)O","InChI=1S/C9H20O2Si/c1-12(2,3)8-6-4-5-7-9(10)11/h7,10-11H,4-6,8H2,1-3H3","CKVBAJWFTWTKIW-UHFFFAOYSA-N","?","25","potentiometric","a/apparent","?","acidic",5.06
"10418","S(=O)(=O)(NC(=O)N)C","CS(=O)(=O)NC(N)=O","InChI=1S/C2H6N2O3S/c1-8(6,7)4-2(3)5/h1H3,(H3,3,4,5)","BLPITTLHXKDNPJ-UHFFFAOYSA-N","?","25","potentiometric","a1/apparent","?","acidic",5.1
"17606","O=C(O)C=C(C)C","CC(C)=CC(O)=O","InChI=1S/C5H8O2/c1-4(2)3-5(6)7/h3H,1-2H3,(H,6,7)","YYPNJNDODFVZLE-UHFFFAOYSA-N","?","25","mean from 3","thermodynamic","?","acidic",5.12
"15658","O=C1(C(O)=C(C(=O)C2(=C1C=CC=C2))CCC(C)C)","CC(C)CCC1=C(O)C(=O)C2C=CC=CC=2C1=O","InChI=1S/C15H16O3/c1-9(2)7-8-12-13(16)10-5-3-4-6-11(10)14(17)15(12)18/h3-6,9,18H,7-8H2,1-2H3","CBIBTBSDPZSTOE-UHFFFAOYSA-N","?",,"spectrophotometric","a/apparent","?","acidic",5.13
"10499","O=[N+]([O-])C(C(=O)C)C","CC(C(=C)O)[N+]([O-])=O","InChI=1S/C4H7NO3/c1-3(4(2)6)5(7)8/h3,6H,2H2,1H3","BEFAEEMFPNUWSP-UHFFFAOYSA-N","?","25","potentiometric","a1/apparent","O=C(Me)-CH","acidic",5.15
"17130","S(=O)(=O)(C=1(NN=NC=1))CC2(=CC=CC=C2)","O=S(=O)(CC1C=CC=CC=1)C1=CN=NN1","InChI=1S/C9H9N3O2S/c13-15(14,9-6-10-12-11-9)7-8-4-2-1-3-5-8/h1-6H,7H2,(H,10,11,12)","JRDBKQITQPXRMO-UHFFFAOYSA-N","?","23","spectrophotometric","a1/apparent","NH","acidic",5.15
"10881","O=[N+]([O-])CC(=O)C1(=CC=CC=C1)","[O-][N+](=O)C=C(O)C1C=CC=CC=1","InChI=1S/C8H7NO3/c10-8(6-9(11)12)7-4-2-1-3-5-7/h1-6,10H","WLPFGUHYQFUBJX-UHFFFAOYSA-N","?","25","potentiometric","a/thermodynamic","?","acidic",5.19
"14881","ClC1(=CC(=C(O)C(=C1)C[NH+](C)C)C[NH+](C)C)","CN(C)CC1C=C(Cl)C=C(CN(C)C)C=1O","InChI=1S/C12H19ClN2O/c1-14(2)7-9-5-11(13)6-10(12(9)16)8-15(3)4/h5-6,16H,7-8H2,1-4H3","YYMJQPRNZRJYFY-UHFFFAOYSA-N","?","25","potentiometric","a1/apparent","?","acidic",5.2
"11390","O=C1(CC(=O)CC(C1)(C)C)","CC1(C)C=C(O)CC(O)=C1","InChI=1S/C8H12O2/c1-8(2)4-6(9)3-7(10)5-8/h4-5,9-10H,3H2,1-2H3","GTXXXOAGEJHHCE-UHFFFAOYSA-N","?","25","mean from 3","a1/apparent","?","acidic",5.21
"17351","[Se](=O)(O)CCC","CCC[Se](O)=O","InChI=1S/C3H8O2Se/c1-2-3-6(4)5/h2-3H2,1H3,(H,4,5)","PEDKRBWGEAUUKD-UHFFFAOYSA-N","?","25","potentiometric","apparent","?","acidic",5.25
"10396","O=[N+]([O-])C([N+](=O)[O-])C","CC([N+]([O-])=O)[N+]([O-])=O","InChI=1S/C2H4N2O4/c1-2(3(5)6)4(7)8/h2H,1H3","LKKHEZBRRGJBGH-UHFFFAOYSA-N","?","25","potentiometric","apparent","?","acidic",5.28
"16962","O=C(O)CC1(C(C=2(C=C(O)C=CC=2(C1)))C)","CC1C(CC2=CC=C(O)C=C21)C=C(O)O","InChI=1S/C12H14O3/c1-7-9(5-12(14)15)4-8-2-3-10(13)6-11(7)8/h2-3,5-7,9,13-15H,4H2,1H3","OCCRGHFIDIUCAG-UHFFFAOYSA-N","?",,"potentiometric","a/apparent","?","acidic",5.3
"14062","ClC[Si](CC(C(=O)O)C)(C)C","CC(C[Si](C)(C)CCl)=C(O)O","InChI=1S/C7H15ClO2Si/c1-6(7(9)10)4-11(2,3)5-8/h9-10H,4-5H2,1-3H3","KMUFKYUUMJANKH-UHFFFAOYSA-N","?","25","potentiometric","a1/apparent","?","acidic",5.32
"13485","O=C(O)CC(=CC1(=CC=CC=C1))C","CC(C=C(O)O)=CC1C=CC=CC=1","InChI=1S/C11H12O2/c1-9(8-11(12)13)7-10-5-3-2-4-6-10/h2-8,12-13H,1H3","CBLMWCGIVJXJSF-UHFFFAOYSA-N","?",,,"a/apparent","?","acidic",5.35
"14758","[Br-].[P+](C1(=CC=CC=C1))(C2(=CC=CC=C2))(C3(=CC=CC=C3))C5(C4(=C(C=CC(=C4)[N+](=O)[O-])C6(=C5C=CC=C6)))","[O-][N+](=O)C1=CC2C(C3C=CC=CC=3C=2C=C1)[P+](C1C=CC=CC=1)(C1C=CC=CC=1)C1C=CC=CC=1","InChI=1S/C31H23NO2P/c33-32(34)23-20-21-28-27-18-10-11-19-29(27)31(30(28)22-23)35(24-12-4-1-5-13-24,25-14-6-2-7-15-25)26-16-8-3-9-17-26/h1-22,31H/q+1","GAUINONBKKHFHS-UHFFFAOYSA-N","[Br-]","25","spectrophotometric","a1/apparent","?","acidic",5.36
"13131","S=C1(SC(C)(C)C(N1)=O)","CC1(C)SC(=S)NC1=O","InChI=1S/C5H7NOS2/c1-5(2)3(7)6-4(8)9-5/h1-2H3,(H,6,7,8)","QAZFSCRQNWGQDE-UHFFFAOYSA-N","?","20","potentiometric","a/apparent","?","acidic",5.38
"12773","O=C1(C=C(O)C=CC=C1)","OC1=CC(=O)C=CC=C1","InChI=1S/C7H6O2/c8-6-3-1-2-4-7(9)5-6/h1-5,8H","PQNPOOXTHUELOP-UHFFFAOYSA-N","?","16.5",,"a/apparent","?","acidic",5.4
"11205","OC=1(C=[N+](C2(=CC=CC=C2(C=1)))C)","C[N+]1=CC(O)=CC2=CC=CC=C12","InChI=1S/C10H9NO/c1-11-7-9(12)6-8-4-2-3-5-10(8)11/h2-7H,1H3/p+1","GCTBEVNSTBKIHQ-UHFFFAOYSA-O","?","20","mean from 2","a/apparent","?","acidic",5.42
"14081","O=[N+]([O-])C([N+](=O)[O-])CCCC","CCCCC([N+]([O-])=O)[N+]([O-])=O","InChI=1S/C5H10N2O4/c1-2-3-4-5(6(8)9)7(10)11/h5H,2-4H2,1H3","WOVMXXUUELNGSX-UHFFFAOYSA-N","?",,"potentiometric","a/thermodynamic","?","acidic",5.45
"13153","ON=NC1(=NN(C)C=N1)","CN1C=NC(NN=O)=N1","InChI=1S/C3H5N5O/c1-8-2-4-3(6-8)5-7-9/h2H,1H3,(H,5,6,9)","WPUBXTOJOWNTTR-UHFFFAOYSA-N","?","25","spectrophotometric","a1/apparent","O-H","acidic",5.48
"15057","OC1(=NC(=[NH+]C(=C1C)C)N2(N=C(C)C=C2O))","CC1N=C(N=C(O)C=1C)N1N=C(C)C=C1O","InChI=1S/C10H12N4O2/c1-5-4-8(15)14(13-5)10-11-7(3)6(2)9(16)12-10/h4,15H,1-3H3,(H,11,12,16)","VBANUYXYNRELIJ-UHFFFAOYSA-N","?","20","mean from 2","a1/apparent","?","acidic",5.5
"11311","O=[N+]([O-])C([N+](=O)[O-])CCCCC","CCCCCC([N+]([O-])=O)[N+]([O-])=O","InChI=1S/C6H12N2O4/c1-2-3-4-5-6(7(9)10)8(11)12/h6H,2-5H2,1H3","HLUAPIYZVLAARK-UHFFFAOYSA-N","?",,"potentiometric","a/thermodynamic","?","acidic",5.5
"17278","N1(=NNC(=N1)C)","CC1NN=NN=1","InChI=1S/C2H4N4/c1-2-3-5-6-4-2/h1H3,(H,3,4,5,6)","XZGLNCKSNVGDNX-UHFFFAOYSA-N","?","25","mean from 2","a1/apparent","N-H","acidic",5.52
"14180","O=C1(C(C(=O)CC(C1)(C)C)C)","CC1C(O)=CC(C)(C)C=C1O","InChI=1S/C9H14O2/c1-6-7(10)4-9(2,3)5-8(6)11/h4-6,10-11H,1-3H3","VTAOFFLFUMGTGI-UHFFFAOYSA-N","?","20","spectrophotometric","a/apparent","?","acidic",5.6
"11371","O=C1(C(CC(C)C(C1)=O)C)","CC1CC(C)C(=O)C=C1O","InChI=1S/C8H12O2/c1-5-3-6(2)8(10)4-7(5)9/h4-6,9H,3H2,1-2H3","SIUHPTJLGFASDY-UHFFFAOYSA-N","?","20","potentiometric","a/apparent","?","acidic",5.62
"12936","OC1(=N[N+](=C([O-])C=C1)C)","C[N+]1N=C(O)C=CC=1O","InChI=1S/C5H6N2O2/c1-7-5(9)3-2-4(8)6-7/h2-3H,1H3,(H,6,8)/p+1","UAECOHJYXUJDOF-UHFFFAOYSA-O","?",,"potentiometric","a/apparent","?","acidic",5.65
"12611","O=[N+]([O-])C([N+](=O)[O-])CC","CCC([N+]([O-])=O)[N+]([O-])=O","InChI=1S/C3H6N2O4/c1-2-3(4(6)7)5(8)9/h3H,2H2,1H3","DFHLCCWFLMSKJI-UHFFFAOYSA-N","?","25","mean from 2","apparent","?","acidic",5.67
"14890","O=[N+]([O-])C1(=CC(=C(O)C=C1)C[NH+](CC)CC)","CCN(CC1=CC(=CC=C1O)[N+]([O-])=O)CC","InChI=1S/C11H16N2O3/c1-3-12(4-2)8-9-7-10(13(15)16)5-6-11(9)14/h5-7,14H,3-4,8H2,1-2H3","DFAWSOMDNOMEQL-UHFFFAOYSA-N","?","25","spectrophotometric","a1/apparent","OH","acidic",5.75
"13741","[Br]C1(=C(O)C=CC2(=C1CC2=O))","OC1C=CC2=C(C=C2O)C=1Br","InChI=1S/C8H5BrO2/c9-8-5-3-7(11)4(5)1-2-6(8)10/h1-3,10-11H","ALVHPXGVPOIGDT-UHFFFAOYSA-N","?","25","potentiometric","a1/thermodynamic","OH","acidic",5.75
"10002","ClC1(=CC(S)=CC=C1)","SC1C=C(Cl)C=CC=1","InChI=1S/C6H5ClS/c7-5-2-1-3-6(8)4-5/h1-4,8H","CQJDYPZUDYXHLM-UHFFFAOYSA-N","?","25","mean from 2","a1/apparent","SH","acidic",5.76
"14072","O=C(O)C(C(C(=O)C)C)(C)C","CC(C(=C)O)C(C)(C)C(O)=O","InChI=1S/C8H14O3/c1-5(6(2)9)8(3,4)7(10)11/h5,9H,2H2,1,3-4H3,(H,10,11)","JWZVXXVJLBYFIJ-UHFFFAOYSA-N","?","18","potentiometric","a1/thermodynamic","?","acidic",5.79
"17664","O=NC(=NO)CC","CCC(N=O)N=O","InChI=1S/C3H6N2O2/c1-2-3(4-6)5-7/h3H,2H2,1H3","UZGGAATVZXRJFK-UHFFFAOYSA-N","?","20","potentiometric","a1/apparent","?","acidic",5.8
"14926","O=[N+]([O-])C1(=C(NN=C(C#N)C#N)C=CC=C1)","N#CC(C#N)N=NC1C=CC=CC=1[N+]([O-])=O","InChI=1S/C9H5N5O2/c10-5-7(6-11)12-13-8-3-1-2-4-9(8)14(15)16/h1-4,7H","NBRXHBWLQYESNG-UHFFFAOYSA-N","?","25","mean from 2","a1/apparent","?","acidic",5.8
"11769","O=C([N+]1(=CC(=CC=C1)C))C","CC1C=[N+](C=CC=1)C(=C)O","InChI=1S/C8H9NO/c1-7-4-3-5-9(6-7)8(2)10/h3-6H,2H2,1H3/p+1","AHXIXPVEDDENSL-UHFFFAOYSA-O","?","25",,"a1/apparent","?","acidic",5.81
"10016","O=C1(C(C=O)CCC1)","OC1=CCCC1C=O","InChI=1S/C6H8O2/c7-4-5-2-1-3-6(5)8/h3-5,8H,1-2H2","HHZKLMVXPIVKIS-UHFFFAOYSA-N","?","20","potentiometric","a/apparent","?","acidic",5.83
"15239","S(=O)(=O)(NC=1(SC=CN=1))C3(=CC(N=NC2(=CC=CC=C2))=C(N)C=C3)","NC1C=CC(=CC=1N=NC1C=CC=CC=1)S(=O)(=O)NC1=NC=CS1","InChI=1S/C15H13N5O2S2/c16-13-7-6-12(24(21,22)20-15-17-8-9-23-15)10-14(13)19-18-11-4-2-1-3-5-11/h1-10H,16H2,(H,17,20)","BRZKQOKMWVFRGO-UHFFFAOYSA-N","?",,"potentiometric","a/apparent","?","acidic",5.85